/*--------------------------------*- C++ -*----------------------------------*\
| =========                 |                                                 |
| \\      /  F ield         | OpenFOAM: The Open Source CFD Toolbox           |
|  \\    /   O peration     | Version:  2112                                  |
|   \\  /    A nd           | Website:  www.openfoam.com                      |
|    \\/     M anipulation  |                                                 |
\*---------------------------------------------------------------------------*/
FoamFile
{
    version     2.0;
    format      ascii;
    arch        "LSB;label=64;scalar=64";
    class       volScalarField;
    location    "0.01";
    object      alphas;
}
// * * * * * * * * * * * * * * * * * * * * * * * * * * * * * * * * * * * * * //

dimensions      [0 0 0 0 0 0 0];

internalField   nonuniform List<scalar> 
5240
(
1.08710222020386e-15
1.08580077319979e-15
1.0840046774521e-15
1.08113192223392e-15
1.07737053282319e-15
1.07281002356465e-15
1.06756135822524e-15
1.06174154711906e-15
1.05547130604831e-15
1.04887073541839e-15
1.04205559015528e-15
1.03513330334871e-15
1.02816102129732e-15
1.0188463493227e-15
1.00988729170896e-15
1.00388908433382e-15
1.00134241471768e-15
1.02042776055274e-15
1.04886052636705e-15
1.0753912837464e-15
1.09979325572973e-15
1.12193987322299e-15
1.14178639185374e-15
1.15935674130599e-15
1.17472978722705e-15
1.18802623944427e-15
1.19939649048373e-15
1.20900969728614e-15
1.21704436869809e-15
1.22368061123199e-15
1.22909406035454e-15
1.23345141202602e-15
1.23690738387049e-15
1.23960288250905e-15
1.2416641323293e-15
1.24320252648356e-15
1.24431498905713e-15
1.24508487527074e-15
1.24562332351489e-15
1.2462618450515e-15
1.03499052211606e-15
1.03321517930714e-15
1.03210117310182e-15
1.03010185007935e-15
1.02754477484426e-15
1.02451855601358e-15
1.02115731765068e-15
1.01760257923488e-15
1.01400327243295e-15
1.01051040928641e-15
1.00727252677019e-15
1.00443051472098e-15
1.00210562048496e-15
1.00124921471883e-15
1.00125779856688e-15
1.00123777472449e-15
1.00125779857316e-15
1.02240247131716e-15
1.06224614837057e-15
1.09533401234905e-15
1.12583333055227e-15
1.1535984410762e-15
1.17855007971589e-15
1.20069590677019e-15
1.22011636076663e-15
1.23694899895996e-15
1.25137295353517e-15
1.26359448519043e-15
1.27383430405555e-15
1.28231704114091e-15
1.28926300090307e-15
1.29488212538653e-15
1.29936996076443e-15
1.30290533536518e-15
1.30564942494174e-15
1.30774588444296e-15
1.30932181230274e-15
1.31049379710564e-15
1.31132811618014e-15
1.31132811605973e-15
1.02837749975612e-15
1.0257765366549e-15
1.0250446499326e-15
1.02334244337214e-15
1.0212196688234e-15
1.01871722507271e-15
1.01596416237149e-15
1.01308722037762e-15
1.01021812158441e-15
1.00748692764545e-15
1.00501765875945e-15
1.00292499994386e-15
1.00134465556384e-15
1.00125779857269e-15
1.00125669145743e-15
1.00174030803878e-15
1.00321728552785e-15
1.02526852184086e-15
1.06407919558669e-15
1.09627586460391e-15
1.1255555970987e-15
1.15190572054302e-15
1.17533587183589e-15
1.19593106143048e-15
1.21383538257852e-15
1.22923524144605e-15
1.24234409704646e-15
1.25338932940774e-15
1.26260150536422e-15
1.27020606631705e-15
1.27641728743369e-15
1.28143424394127e-15
1.28543845854044e-15
1.28859288467067e-15
1.29104189487715e-15
1.29291198055988e-15
1.29431288263751e-15
1.29534243242968e-15
1.2961578789859e-15
1.29650793538882e-15
1.0331121325319e-15
1.02937285064553e-15
1.02895353540753e-15
1.02730315041941e-15
1.02532986292817e-15
1.02298473218699e-15
1.02039689428481e-15
1.01767329732223e-15
1.01492512172505e-15
1.01225830758603e-15
1.00977030494206e-15
1.00755287384768e-15
1.00576549773741e-15
1.00518518855019e-15
1.00453370640096e-15
1.00431573910775e-15
1.00660610853037e-15
1.02883787132198e-15
1.06540698157551e-15
1.09576816870176e-15
1.12302858489045e-15
1.14729398901086e-15
1.16864525478617e-15
1.18722724695326e-15
1.20323003428082e-15
1.21687229202719e-15
1.22838720903115e-15
1.23801107370118e-15
1.245974486059e-15
1.25249597235483e-15
1.25777768736799e-15
1.26200285386161e-15
1.2653345920491e-15
1.26791582389953e-15
1.26987000588042e-15
1.27130252671133e-15
1.27230183097299e-15
1.27294000140415e-15
1.27343293283438e-15
1.2732690831909e-15
1.03533659164477e-15
1.0301968553708e-15
1.03019694334608e-15
1.02857506814634e-15
1.0266550261228e-15
1.02435212196934e-15
1.02181521569757e-15
1.01914158520763e-15
1.0164374757276e-15
1.01380284793889e-15
1.011330563397e-15
1.00911786900042e-15
1.00736169700351e-15
1.00665785086187e-15
1.00595071631666e-15
1.00606375061085e-15
1.01054696651472e-15
1.03427305938921e-15
1.06990088095271e-15
1.09983743958304e-15
1.12657008168943e-15
1.15025287854472e-15
1.17099212538654e-15
1.18895551668085e-15
1.20435174926261e-15
1.21741392446713e-15
1.22838566175903e-15
1.23751014912941e-15
1.24502197954943e-15
1.2511414560701e-15
1.25607096878426e-15
1.25999302317008e-15
1.26306951004641e-15
1.26544185111057e-15
1.26723186942235e-15
1.26854441131415e-15
1.26948110815759e-15
1.27030314318698e-15
1.27242561098082e-15
1.27242573580465e-15
1.03533724176462e-15
1.02834500335812e-15
1.0294097295554e-15
1.02766885432341e-15
1.025821899919e-15
1.02357958377916e-15
1.02112509595845e-15
1.01854809431042e-15
1.0159563357082e-15
1.0134502652784e-15
1.01112644380652e-15
1.00909810708571e-15
1.0075919626415e-15
1.00705226810883e-15
1.00673673178596e-15
1.0079750833638e-15
1.01550520017366e-15
1.04130121648635e-15
1.07654331595947e-15
1.10656622605173e-15
1.13327234730531e-15
1.15684314477251e-15
1.17741413019796e-15
1.19516650191779e-15
1.21032680724843e-15
1.2231435657129e-15
1.23387296606514e-15
1.24276800927253e-15
1.25007080402007e-15
1.2560076126388e-15
1.26078618716835e-15
1.26459495705064e-15
1.26760373138694e-15
1.26996587507569e-15
1.27182342279785e-15
1.27332595971973e-15
1.27473684213569e-15
1.27643004465274e-15
1.27643004466443e-15
1.27642729363307e-15
1.03551066659064e-15
1.02834500333851e-15
1.02855617164106e-15
1.02689244921216e-15
1.02511720941284e-15
1.02292513746793e-15
1.02054432853721e-15
1.01805404247208e-15
1.0155649594323e-15
1.01317843113529e-15
1.0109965508643e-15
1.00915030546472e-15
1.00788359668561e-15
1.00754205123236e-15
1.00779320484045e-15
1.01059913089747e-15
1.02143561055231e-15
1.04918408838737e-15
1.08398500599308e-15
1.11393716888207e-15
1.14044827179554e-15
1.16372666900405e-15
1.18393176525566e-15
1.20128276364952e-15
1.21602596470259e-15
1.22842968115837e-15
1.2387644458027e-15
1.24729181970238e-15
1.25425664270083e-15
1.25988206690705e-15
1.2643667178192e-15
1.26788338398909e-15
1.27057886859629e-15
1.27257529059987e-15
1.27397466108177e-15
1.27487232251975e-15
1.27538939702397e-15
1.27553935253861e-15
1.27496253636754e-15
1.2749625392554e-15
1.03642838096389e-15
1.02834500335813e-15
1.02849825975996e-15
1.02677397481376e-15
1.02505401974937e-15
1.02288605522919e-15
1.02055244618414e-15
1.01811773006359e-15
1.01569630781763e-15
1.01338999653812e-15
1.01130710321594e-15
1.00959512590087e-15
1.00851013590204e-15
1.00837476619853e-15
1.00930167233201e-15
1.01384089329277e-15
1.02768244527416e-15
1.05692500502237e-15
1.09122002078963e-15
1.12092255635996e-15
1.14706515078769e-15
1.16988588689631e-15
1.18957894956035e-15
1.20639479301005e-15
1.22061019865024e-15
1.2325136828413e-15
1.24239112505468e-15
1.2505133458895e-15
1.25712902214823e-15
1.26246071567439e-15
1.26670325336739e-15
1.27002370812622e-15
1.27256233929771e-15
1.2744361613251e-15
1.27575491297014e-15
1.27662578880202e-15
1.2765963131101e-15
1.2700070246686e-15
1.2319665446138e-15
1.41546845185756e-15
1.03776670518792e-15
1.02837090110521e-15
1.02886311674019e-15
1.02703426326606e-15
1.02537995387164e-15
1.02324051078293e-15
1.02096307693817e-15
1.01859178167535e-15
1.0162457330164e-15
1.01402639882696e-15
1.01204815288833e-15
1.01047269698557e-15
1.00957033422871e-15
1.00969842042466e-15
1.01136703927029e-15
1.01755739002487e-15
1.03383657048879e-15
1.06414798244756e-15
1.09804835833998e-15
1.12752820198483e-15
1.15335049178291e-15
1.17578416568247e-15
1.19505683201982e-15
1.21144794766089e-15
1.22526815704766e-15
1.23682835237695e-15
1.24643233475173e-15
1.25436706470726e-15
1.26089565190881e-15
1.26625521160596e-15
1.27065747818351e-15
1.27429125925476e-15
1.27732380138486e-15
1.2798953134135e-15
1.28213206990173e-15
1.28434508888374e-15
1.2867653576176e-15
1.27441769680596e-15
1.12429073840003e-15
1.75530324506822e-15
1.03927112717002e-15
1.02851864007854e-15
1.02937013834444e-15
1.02743080143629e-15
1.02585322144785e-15
1.02374556598989e-15
1.02153142146348e-15
1.01922859002741e-15
1.01696269916264e-15
1.01483423770901e-15
1.01296377824975e-15
1.01152613442132e-15
1.01081053968799e-15
1.01124031377747e-15
1.0136592327833e-15
1.02134027569531e-15
1.03958179389286e-15
1.07068716935687e-15
1.10431638194405e-15
1.13364963896015e-15
1.159248620155e-15
1.18141148093399e-15
1.20039417550911e-15
1.21650403190626e-15
1.23007111070972e-15
1.24143041460161e-15
1.25090615639082e-15
1.25879329148795e-15
1.26536338637941e-15
1.27085814716502e-15
1.27548934538498e-15
1.2794410135546e-15
1.28286948565196e-15
1.2858694231981e-15
1.28837234605504e-15
1.29059588420989e-15
1.29637411461957e-15
1.29520258306592e-15
1.00000000000174e-15
2.08347596871893e-15
1.04089785050883e-15
1.0287417165124e-15
1.0299769060968e-15
1.02792294186889e-15
1.02643480382675e-15
1.02436209329905e-15
1.02221811354564e-15
1.01998760739696e-15
1.01780498864077e-15
1.0157687148629e-15
1.01400533380797e-15
1.01270142736078e-15
1.01216755790928e-15
1.01290218953826e-15
1.01600995890823e-15
1.02494441289977e-15
1.04471342874613e-15
1.07640783861361e-15
1.10987350816352e-15
1.13914323537861e-15
1.16462064793624e-15
1.18662965810083e-15
1.20544530302086e-15
1.22139363208216e-15
1.23481848640246e-15
1.24606375995874e-15
1.2554549207961e-15
1.26329417711191e-15
1.26985280297627e-15
1.275365080647e-15
1.28003088452499e-15
1.28402061292496e-15
1.28748442026065e-15
1.29051686214152e-15
1.29282338564646e-15
1.29391540613988e-15
1.30455144071654e-15
1.36261519942788e-15
1.00000000000174e-15
2.21399398796335e-15
1.04268016592912e-15
1.02906729989579e-15
1.03071347958718e-15
1.02853913565226e-15
1.0271529304768e-15
1.02511612580857e-15
1.0230472559356e-15
1.02089011038997e-15
1.01879063976029e-15
1.01684362873498e-15
1.01518089701745e-15
1.01399851790523e-15
1.01362657053466e-15
1.01463096077342e-15
1.01830150011753e-15
1.02818962431932e-15
1.04907033773007e-15
1.0811792872297e-15
1.11456624993821e-15
1.14384998542058e-15
1.16930298796707e-15
1.19127256165833e-15
1.21004287609764e-15
1.22594953079731e-15
1.23933977882877e-15
1.25055665969956e-15
1.25992186487213e-15
1.26773064001205e-15
1.27424456181924e-15
1.27969343593719e-15
1.28427555636031e-15
1.28816072876083e-15
1.29151412805942e-15
1.29453943335966e-15
1.29695394676527e-15
1.29681993969579e-15
1.31165155848472e-15
1.47600517809485e-15
1.00000000000124e-15
2.29269619448419e-15
1.04464666579562e-15
1.02951645103755e-15
1.03160565087448e-15
1.02930267386748e-15
1.02803183331618e-15
1.02603059747322e-15
1.02404137483161e-15
1.02195751256281e-15
1.01993985928141e-15
1.01807715132245e-15
1.01650518544049e-15
1.0154257628317e-15
1.01518050916762e-15
1.01638689090988e-15
1.02043586008139e-15
1.03091510170906e-15
1.05248098043252e-15
1.08483356156441e-15
1.11820873777097e-15
1.14757906592323e-15
1.17310325588092e-15
1.19515375796046e-15
1.21401668917504e-15
1.23003528734492e-15
1.24355691441871e-15
1.25490538769962e-15
1.26440265237842e-15
1.27233082287174e-15
1.27893586385188e-15
1.2844312691982e-15
1.28899966595248e-15
1.29278876107748e-15
1.2959518350527e-15
1.2988717235502e-15
1.30179692371399e-15
1.30078420311146e-15
1.31468641092413e-15
1.63710120878581e-15
1e-15
2.32847526827459e-15
1.0468713736843e-15
1.03016877587893e-15
1.032756400101e-15
1.03033741108682e-15
1.02922246796324e-15
1.02728338820258e-15
1.02540758272605e-15
1.02342661591204e-15
1.02151983453812e-15
1.01976659557392e-15
1.01830453960817e-15
1.01733383660942e-15
1.01708022142514e-15
1.01854673824486e-15
1.02277779989143e-15
1.03346093581973e-15
1.05527650977123e-15
1.08767776471723e-15
1.12109722504835e-15
1.15061340915408e-15
1.17628515563391e-15
1.19851550602683e-15
1.21758839517588e-15
1.23385535428661e-15
1.24765533293288e-15
1.25931363232453e-15
1.26915906719629e-15
1.27746227403014e-15
1.28445839719342e-15
1.29034390910138e-15
1.29527806265891e-15
1.29936832260566e-15
1.30264718783956e-15
1.30547027594674e-15
1.30945626765639e-15
1.30853903440488e-15
1.29803533363399e-15
1.84216805847598e-15
1e-15
2.33161771646517e-15
1.04879445334873e-15
1.03038745748398e-15
1.03339526513983e-15
1.03071888680796e-15
1.02962062482933e-15
1.02757979849371e-15
1.02564884772478e-15
1.02359381233526e-15
1.0216189449251e-15
1.01979577063504e-15
1.0182656648787e-15
1.01722868409233e-15
1.01708023438105e-15
1.01825950222778e-15
1.02241796203714e-15
1.03285982828168e-15
1.05431148188453e-15
1.08609492788574e-15
1.11922940539585e-15
1.14872629054782e-15
1.17444818930962e-15
1.1967968816157e-15
1.21605358866864e-15
1.23256708100228e-15
1.24666812397853e-15
1.2586948199824e-15
1.26896939853007e-15
1.27776583199091e-15
1.28532623326364e-15
1.29185896261285e-15
1.29754375477721e-15
1.30253130437501e-15
1.30687023648675e-15
1.31062516835582e-15
1.31643255745886e-15
1.32593251527276e-15
1.25946655772106e-15
2.02784969841442e-15
1e-15
2.4183633659827e-15
1.05166543964927e-15
1.03147612853805e-15
1.03484641963409e-15
1.03209944175854e-15
1.03113475829359e-15
1.02918298356671e-15
1.02737681323594e-15
1.02544504234181e-15
1.0235962577263e-15
1.02189292858327e-15
1.02047131332087e-15
1.01952297485397e-15
1.01942247178755e-15
1.02059599156364e-15
1.02458367734969e-15
1.03446885869155e-15
1.0548300051511e-15
1.08515948134458e-15
1.11775764293136e-15
1.14741889268998e-15
1.17351491882546e-15
1.1963291278958e-15
1.21613109574898e-15
1.23325707070099e-15
1.24803225709007e-15
1.26079246557826e-15
1.27185790551639e-15
1.28151085641196e-15
1.29000442924068e-15
1.29756212210164e-15
1.30438097689184e-15
1.31064598116454e-15
1.31649867321398e-15
1.3216893361647e-15
1.32716266883557e-15
1.35531608441823e-15
1.22118356350603e-15
2.1280182543708e-15
1e-15
2.44682596425813e-15
1.05550276061113e-15
1.03351296521789e-15
1.03728516080995e-15
1.03451549797922e-15
1.03373802953398e-15
1.03192604427529e-15
1.03029839594397e-15
1.02854410928249e-15
1.02687768748847e-15
1.02535214108222e-15
1.02409892604138e-15
1.02330195042385e-15
1.02331838813808e-15
1.02456315371056e-15
1.02849336589803e-15
1.0380079706942e-15
1.0575483752038e-15
1.08685202124374e-15
1.11910154402373e-15
1.14896241774607e-15
1.17546948323847e-15
1.19876688352223e-15
1.21909542452194e-15
1.23677559386024e-15
1.25212185970226e-15
1.26545644496549e-15
1.27708677685246e-15
1.28728559723588e-15
1.29629506383464e-15
1.3043266358514e-15
1.31156062764292e-15
1.31815892677499e-15
1.32432346901533e-15
1.32993282152863e-15
1.33107276669425e-15
1.38167130886893e-15
1.16800756871078e-15
2.16291917750557e-15
1e-15
2.44703853595835e-15
1.059064785188e-15
1.03526484796894e-15
1.03938338617447e-15
1.0365439348368e-15
1.03590260184497e-15
1.03417416914049e-15
1.03266679106655e-15
1.0310286790414e-15
1.02948188153601e-15
1.02807020930112e-15
1.02692110373607e-15
1.02621169295096e-15
1.02628447729965e-15
1.02754307452615e-15
1.03137968151432e-15
1.04053758110613e-15
1.05931156932253e-15
1.087697466389e-15
1.11954675261777e-15
1.14945046401676e-15
1.17620895833184e-15
1.19982208899438e-15
1.22049408873314e-15
1.23852919749509e-15
1.25423110077341e-15
1.26790985677642e-15
1.279862693546e-15
1.29035574750399e-15
1.29962558791123e-15
1.30788005604272e-15
1.31529699713402e-15
1.32202145982311e-15
1.32826243692679e-15
1.33479156436292e-15
1.3260282850392e-15
1.405550677564e-15
1.11623777043727e-15
2.18016741183311e-15
1e-15
2.44719302024306e-15
1.06252184933312e-15
1.03694936614285e-15
1.04137993710887e-15
1.03845144111741e-15
1.03792475655491e-15
1.03625719583243e-15
1.03484787805884e-15
1.03330358330575e-15
1.03185515095252e-15
1.03053732721777e-15
1.02947414488665e-15
1.02883649866377e-15
1.0289545938926e-15
1.03022073888033e-15
1.03397525302658e-15
1.04283417275576e-15
1.0609447127716e-15
1.08855643466362e-15
1.12004720242081e-15
1.14996133391861e-15
1.17693247226808e-15
1.20082056180787e-15
1.22179267771356e-15
1.24013863859087e-15
1.25615394396924e-15
1.27014096679293e-15
1.28239151359675e-15
1.29316957583043e-15
1.3027108853248e-15
1.31122407263634e-15
1.31889153203455e-15
1.32585252346767e-15
1.33216322760958e-15
1.34039242275226e-15
1.32060520408489e-15
1.42772455835177e-15
1.07269893926895e-15
2.19850090574097e-15
1e-15
2.44728938943579e-15
1.0659892674817e-15
1.03870169958769e-15
1.0434191100086e-15
1.04039840401741e-15
1.03998055393893e-15
1.03836927689732e-15
1.03705454298504e-15
1.03560154541456e-15
1.03425069637986e-15
1.03302769135118e-15
1.03205354161792e-15
1.03149310500786e-15
1.03166620022642e-15
1.03295401459085e-15
1.0366538078278e-15
1.0452794521115e-15
1.06283463140124e-15
1.08980983222611e-15
1.12100980079739e-15
1.15094486062605e-15
1.1781270108788e-15
1.20228355899203e-15
1.22354605156614e-15
1.24219062205301e-15
1.25850573328766e-15
1.27278817786612e-15
1.28532589341613e-15
1.29638133993184e-15
1.30618952040878e-15
1.31495866784799e-15
1.32287455064867e-15
1.33010049633421e-15
1.3362917736439e-15
1.34689257104583e-15
1.32053631258057e-15
1.44788035401561e-15
1.02801732048002e-15
2.20362950664874e-15
1e-15
2.4473962490283e-15
1.06948288087099e-15
1.04054679961966e-15
1.0455234787193e-15
1.04241382180785e-15
1.04210146478373e-15
1.04054626091611e-15
1.0393264901857e-15
1.03796634539956e-15
1.03671612038838e-15
1.03559250119382e-15
1.0347137204344e-15
1.03423856774239e-15
1.03447788977728e-15
1.03580217188118e-15
1.03947108103559e-15
1.04791668830669e-15
1.06500512327496e-15
1.09145206352559e-15
1.12241894797657e-15
1.15238774058199e-15
1.17977881026648e-15
1.20419427157757e-15
1.22573229569859e-15
1.24465518254275e-15
1.261244812271e-15
1.27579349322188e-15
1.28858598926049e-15
1.29988341311623e-15
1.30992021323661e-15
1.31890386476415e-15
1.32701794632764e-15
1.33451029389509e-15
1.34030566585601e-15
1.35395956830561e-15
1.32060520290906e-15
1.46250839894942e-15
1.01809656881609e-15
2.20367060954445e-15
1e-15
2.44738332209854e-15
1.07297412264952e-15
1.04246305076363e-15
1.04766540929113e-15
1.04447397283773e-15
1.04426175676265e-15
1.04276360278638e-15
1.04163887092699e-15
1.04037322642654e-15
1.03922621977065e-15
1.03820612467958e-15
1.03742838790635e-15
1.03704557904137e-15
1.03736053229069e-15
1.03873365246778e-15
1.04239006404395e-15
1.05069576555182e-15
1.06738596467267e-15
1.09338600767524e-15
1.12416478516401e-15
1.15417828255723e-15
1.18177503384111e-15
1.2064387845245e-15
1.22823659076914e-15
1.24741665160164e-15
1.26425494206003e-15
1.27904043606238e-15
1.2920556611461e-15
1.30356103613161e-15
1.31379119533127e-15
1.32295422268341e-15
1.33121829841907e-15
1.33900880973599e-15
1.34410874589515e-15
1.36152508090968e-15
1.32049637369446e-15
1.47573238359993e-15
1.01792389418831e-15
2.20388979163935e-15
1e-15
2.44754100966654e-15
1.07642640211905e-15
1.0444198255579e-15
1.04980965906133e-15
1.04654602638442e-15
1.04642704552544e-15
1.04498767253019e-15
1.04395769846762e-15
1.04278850942055e-15
1.04174783022969e-15
1.0408356194767e-15
1.04016466688883e-15
1.03988111945788e-15
1.04028061869877e-15
1.04171416391213e-15
1.04537375138786e-15
1.05357091464201e-15
1.06991653858687e-15
1.09553185992659e-15
1.12615942738161e-15
1.15623007748789e-15
1.18403306697834e-15
1.20893958589614e-15
1.23098745911298e-15
1.25041050130411e-15
1.26747964058977e-15
1.28248161010749e-15
1.29569762895324e-15
1.30738808589484e-15
1.31778828590449e-15
1.32711022804103e-15
1.33548280057976e-15
1.34363600538015e-15
1.34772862610959e-15
1.36958753630254e-15
1.32060520196858e-15
1.48918924641834e-15
1.01809656861798e-15
2.20472351161509e-15
1.00000315753664e-15
2.44739434301793e-15
1.07980367988018e-15
1.04638679371903e-15
1.05192108687509e-15
1.048597267743e-15
1.04856349699019e-15
1.0471855144216e-15
1.04625003912682e-15
1.0451797223363e-15
1.04424863127712e-15
1.0434492368415e-15
1.04289163220148e-15
1.04271547073239e-15
1.04320873594911e-15
1.0447138950255e-15
1.04839142829026e-15
1.05650578226348e-15
1.07254911219144e-15
1.09782757465785e-15
1.12833520408583e-15
1.1584779507675e-15
1.18649297415723e-15
1.21164344448953e-15
1.23393896098562e-15
1.25359853253783e-15
1.2708888658082e-15
1.28609533944225e-15
1.29949864820764e-15
1.31135973515116e-15
1.32191446283589e-15
1.33138498476632e-15
1.33982463349381e-15
1.34842876414935e-15
1.35119963986498e-15
1.37809887756039e-15
1.32048629126419e-15
1.50327146675706e-15
1.01792674411983e-15
2.20960687876508e-15
1e-15
2.44764771707141e-15
1.08306947467359e-15
1.04833296080452e-15
1.05396360768405e-15
1.05059364511703e-15
1.0506358008279e-15
1.04932240856966e-15
1.04848093647554e-15
1.04751209132269e-15
1.046693922617e-15
1.04601251812498e-15
1.04557517634596e-15
1.04551517223118e-15
1.04611262858763e-15
1.04770315494332e-15
1.05141256883145e-15
1.05946138904372e-15
1.07523276515423e-15
1.10021329672801e-15
1.13062723374797e-15
1.16085923414605e-15
1.18909692972005e-15
1.21449886737415e-15
1.23704618494497e-15
1.25694246710943e-15
1.27445090847034e-15
1.28985624356459e-15
1.30343934615846e-15
1.31546237204891e-15
1.32616081188258e-15
1.3357771697281e-15
1.34423974228742e-15
1.35339941115989e-15
1.35454826560952e-15
1.3869687182916e-15
1.3206052013424e-15
1.51792131342119e-15
1.0181032709022e-15
2.21746379121624e-15
1.00003296211981e-15
2.44739275575305e-15
1.0861859553178e-15
1.05022582215391e-15
1.05589950143262e-15
1.05249892821834e-15
1.05260628217886e-15
1.05136081068042e-15
1.05061221725353e-15
1.04974714033551e-15
1.04904479873884e-15
1.04848627248634e-15
1.04817593261934e-15
1.04824094181632e-15
1.04895319133809e-15
1.05064303242142e-15
1.05440115305884e-15
1.06240563793945e-15
1.07792296643871e-15
1.10261415743311e-15
1.13295611079416e-15
1.16330547215996e-15
1.19178139534039e-15
1.21744879116198e-15
1.24025849815857e-15
1.26039791267461e-15
1.27812737568696e-15
1.29373156322424e-15
1.30749219309366e-15
1.31967351166752e-15
1.33050858406946e-15
1.34027512165151e-15
1.34871401822827e-15
1.35854299862581e-15
1.35780142080109e-15
1.39606951884872e-15
1.32049038684929e-15
1.53314401896093e-15
1.01793608273354e-15
2.22783138673143e-15
1.00000000045743e-15
2.44780124808088e-15
1.08911439382684e-15
1.0520317522046e-15
1.05769007498651e-15
1.05427533272268e-15
1.05443563963529e-15
1.05326109041248e-15
1.05260327974071e-15
1.0518434787864e-15
1.05125892610619e-15
1.0508273042663e-15
1.05064992124096e-15
1.05084826866547e-15
1.05168557967522e-15
1.05348842247197e-15
1.05731182072715e-15
1.0652901649287e-15
1.08057131794039e-15
1.10498055131596e-15
1.13525073281972e-15
1.16572343741119e-15
1.19446042944558e-15
1.22042491309666e-15
1.24351823176652e-15
1.26391403265187e-15
1.28187384194997e-15
1.29768268881075e-15
1.31162379361615e-15
1.32396480194874e-15
1.33493288554983e-15
1.34486075521973e-15
1.35322857559235e-15
1.36384170518198e-15
1.36098879448672e-15
1.40513017122195e-15
1.32060520112916e-15
1.54856377636562e-15
1.01810997390676e-15
2.23939727923876e-15
1.00008532830409e-15
2.44739117115302e-15
1.09181608972833e-15
1.05371675288156e-15
1.05929668791317e-15
1.05588450754346e-15
1.05608405604532e-15
1.05498266350725e-15
1.05441229499991e-15
1.05375802636582e-15
1.05329178122583e-15
1.05298962194673e-15
1.05294969040682e-15
1.05328843050324e-15
1.05426005437421e-15
1.05618867595055e-15
1.06009325444785e-15
1.0680607708577e-15
1.08311669170381e-15
1.10724038310405e-15
1.13743445990556e-15
1.16804284582449e-15
1.19706156982736e-15
1.22334272536926e-15
1.24674569493422e-15
1.26742270372958e-15
1.28563583312558e-15
1.30166405721233e-15
1.31579424049061e-15
1.32830163122221e-15
1.33940265767672e-15
1.34950931583136e-15
1.35776047370051e-15
1.36926517032123e-15
1.3641409214131e-15
1.41410069746328e-15
1.3205296424833e-15
1.56383606032024e-15
1.01801671745523e-15
2.25094994992166e-15
1.00009397697462e-15
2.44802381764911e-15
1.09425325438764e-15
1.05524711610181e-15
1.06068162853143e-15
1.05728840993418e-15
1.05751217384991e-15
1.0564849914897e-15
1.05599726794069e-15
1.05544710263178e-15
1.05509775955699e-15
1.05492552720539e-15
1.05502534222324e-15
1.05550939144338e-15
1.05662267970262e-15
1.05868804797189e-15
1.0626883055617e-15
1.07065720885974e-15
1.08549199283144e-15
1.10931508458814e-15
1.13941749258408e-15
1.17016948409974e-15
1.19949208971693e-15
1.22612301249735e-15
1.24986895790451e-15
1.27085693597349e-15
1.28934447404292e-15
1.30561207640658e-15
1.31994872735027e-15
1.33263708456508e-15
1.34387815627345e-15
1.35418732370273e-15
1.36228168913117e-15
1.37476925657377e-15
1.36728649178419e-15
1.42289030128967e-15
1.32060520122898e-15
1.57838981459552e-15
1.01811667819781e-15
2.26093700189083e-15
1.00163374035108e-15
2.44738959451922e-15
1.0963897948144e-15
1.05658997696614e-15
1.06180822926279e-15
1.05845006644018e-15
1.05868190460887e-15
1.05772848507733e-15
1.05731701365981e-15
1.05686746089089e-15
1.05663126162339e-15
1.05658672521801e-15
1.05682562620068e-15
1.05745681143027e-15
1.05871615659205e-15
1.06092627381217e-15
1.06503419592715e-15
1.07301300107148e-15
1.08762375754686e-15
1.11111895137805e-15
1.14109980222246e-15
1.17199539620951e-15
1.20164320913774e-15
1.22866259683028e-15
1.25279327283959e-15
1.27413128511453e-15
1.29292697592162e-15
1.30946210567417e-15
1.32402788729142e-15
1.33691699913103e-15
1.34830560312741e-15
1.35884512302736e-15
1.36675536146668e-15
1.38028483240216e-15
1.37045585950978e-15
1.43137762596598e-15
1.3205790548556e-15
1.59171087771501e-15
1.01810577010333e-15
2.26682387354874e-15
1.00586589066228e-15
2.44831703312458e-15
1.0981920201186e-15
1.05771375993148e-15
1.06263301269595e-15
1.05933431555967e-15
1.05955656261048e-15
1.05867538457751e-15
1.05833214512165e-15
1.05797737486583e-15
1.05784787975048e-15
1.05792560209851e-15
1.05829927764302e-15
1.05907538751975e-15
1.06048106322466e-15
1.06283959946709e-15
1.06706316336171e-15
1.0750556546958e-15
1.08943218500012e-15
1.11255916564836e-15
1.14237045886916e-15
1.17339663784447e-15
1.20338614015424e-15
1.23083634982933e-15
1.25540197655963e-15
1.27713950848542e-15
1.29628762080368e-15
1.31312823958349e-15
1.32795446860266e-15
1.34107184793914e-15
1.35262447701175e-15
1.36342301674967e-15
1.3711466871831e-15
1.38571508793868e-15
1.37367676515522e-15
1.43939246442518e-15
1.32060520203497e-15
1.60320109547895e-15
1.01895113093498e-15
2.266878432928e-15
1.0127817729072e-15
2.44738803793892e-15
1.09962903728968e-15
1.05858823423595e-15
1.0630035837561e-15
1.05991104658369e-15
1.06009351013187e-15
1.05929072129574e-15
1.05900609030183e-15
1.05873777924962e-15
1.05870568466631e-15
1.05889667416736e-15
1.05939662140828e-15
1.06031057866654e-15
1.06185760472147e-15
1.06436243309825e-15
1.06870378315502e-15
1.07670752694955e-15
1.09083181713251e-15
1.11353674595385e-15
1.14310832578066e-15
1.17423224438018e-15
1.2045686764832e-15
1.23249161301861e-15
1.25754961032544e-15
1.27974716626139e-15
1.2993040809139e-15
1.31649996710501e-15
1.33162874834894e-15
1.34501137099296e-15
1.35675403739932e-15
1.36784143498135e-15
1.37540336098598e-15
1.39095326452453e-15
1.37703204658619e-15
1.44665233401383e-15
1.3208410128345e-15
1.6123674833758e-15
1.02258065892688e-15
2.2668238753885e-15
1.02211176234315e-15
2.44870509051216e-15
1.10067015575332e-15
1.05918610593062e-15
1.06300592656189e-15
1.06015154398347e-15
1.06015149406908e-15
1.05954803746547e-15
1.05930630080634e-15
1.05911341695925e-15
1.0591665423385e-15
1.0594581312748e-15
1.06007136492551e-15
1.06111065574512e-15
1.06278785863589e-15
1.06542967952945e-15
1.06988313675074e-15
1.07788758851287e-15
1.09173308636308e-15
1.11394858852566e-15
1.14318460178502e-15
1.17434532923576e-15
1.20501338384585e-15
1.23344302933523e-15
1.25905420856398e-15
1.28178241485317e-15
1.30181757772583e-15
1.31943225580301e-15
1.33491898952096e-15
1.34861555153048e-15
1.36058742698532e-15
1.37199420481783e-15
1.37945444522653e-15
1.3958660133378e-15
1.38055518427272e-15
1.45286828544826e-15
1.32233568232417e-15
1.6188590444455e-15
1.02897983433615e-15
2.26687847077587e-15
1.03393507183454e-15
2.4473865299094e-15
1.10125102515904e-15
1.05948525440321e-15
1.06300358386034e-15
1.06002476505108e-15
1.06010795582417e-15
1.05941027420686e-15
1.05920423908942e-15
1.05907383604551e-15
1.05919736218472e-15
1.05957336125765e-15
1.060282452814e-15
1.06142894527351e-15
1.06321840949981e-15
1.06597971872172e-15
1.07052992822315e-15
1.07851435257982e-15
1.09204504084987e-15
1.11369077685497e-15
1.14246761449823e-15
1.17356741116165e-15
1.20451904403044e-15
1.23346947732972e-15
1.25969001225778e-15
1.28302568550085e-15
1.30362068038274e-15
1.321732254689e-15
1.33764767410874e-15
1.35172076756878e-15
1.36397844609739e-15
1.37573625161438e-15
1.38319873465871e-15
1.40028419030106e-15
1.38424781764942e-15
1.45775632184815e-15
1.32532467748916e-15
1.62156693036319e-15
1.0383825510347e-15
2.26391994718612e-15
1.04842095110157e-15
2.44919311322126e-15
1.10125075153033e-15
1.05946545037075e-15
1.06254477529104e-15
1.05950915109993e-15
1.05951758564015e-15
1.05886071340214e-15
1.05867704929028e-15
1.0585942996395e-15
1.05877118526182e-15
1.05921232737215e-15
1.05999582047692e-15
1.06122607029572e-15
1.06310316094058e-15
1.06595784375264e-15
1.0705784879218e-15
1.07851014120149e-15
1.09167959615105e-15
1.11266339613273e-15
1.14083008334734e-15
1.17172699767461e-15
1.20286745193139e-15
1.2323158352932e-15
1.25918314017638e-15
1.28320023177134e-15
1.3044442168903e-15
1.3231436081388e-15
1.33957378310774e-15
1.35410034327527e-15
1.36672091020248e-15
1.37886303585256e-15
1.38648344830051e-15
1.40398189990486e-15
1.38806944441528e-15
1.46090754915442e-15
1.33027794244361e-15
1.62157510930832e-15
1.05114857268932e-15
2.25165484473292e-15
1.06605190404635e-15
2.44738513554377e-15
1.10125102514391e-15