/*--------------------------------*- C++ -*----------------------------------*\
| =========                 |                                                 |
| \\      /  F ield         | OpenFOAM: The Open Source CFD Toolbox           |
|  \\    /   O peration     | Version:  2112                                  |
|   \\  /    A nd           | Website:  www.openfoam.com                      |
|    \\/     M anipulation  |                                                 |
\*---------------------------------------------------------------------------*/
FoamFile
{
    version     2.0;
    format      ascii;
    arch        "LSB;label=64;scalar=64";
    class       volScalarField;
    location    "0.01";
    object      Mach;
}
// * * * * * * * * * * * * * * * * * * * * * * * * * * * * * * * * * * * * * //

dimensions      [0 0 0 0 0 0 0];

internalField   nonuniform List<scalar> 
5240
(
0.0903779475608502
0.0901191025056129
0.0894685594760311
0.0884843647341422
0.0871913421791385
0.0856190274591011
0.0838001556024198
0.081770292084507
0.0795667748192438
0.0772276442001545
0.0747906696557219
0.0722925114163959
0.0697680813155783
0.0672501070659745
0.0647689181539068
0.0623528557665118
0.0600505882089359
0.0579631651403266
0.0561439488626596
0.0545687015499473
0.0532126115346788
0.0520515955473357
0.0510629736273014
0.0502257912875771
0.0495209338864361
0.0489311220624835
0.0484408426909732
0.0480362476313737
0.0477050385716002
0.047436347762591
0.0472206194855672
0.0470494944249104
0.0469156978575929
0.0468129321138523
0.0467357737086017
0.0466795756334811
0.0466403753913792
0.0466148093864918
0.0466000343110665
0.0465936558451438
0.094975473204752
0.094699067848274
0.0939772880329107
0.0928865483230976
0.0914518224305863
0.0897041335630067
0.0876771839419772
0.0854074870407795
0.0829333266759454
0.0802937290853302
0.077527526945078
0.0746725715525696
0.0717651618305777
0.0688396961724956
0.0659285921173775
0.0630638314115479
0.0603031537008661
0.057767338727615
0.0555323267940064
0.0535759147899952
0.0518739971584476
0.0504021850185422
0.049136744426585
0.0480551162052969
0.0471361919582416
0.046360444725063
0.0457099719475478
0.0451684853605407
0.0447212686854403
0.044355115630345
0.0440582555542335
0.0438202710237794
0.0436320096802062
0.043485491908538
0.0433738154636936
0.0432910582218135
0.043232180384743
0.0431929276281652
0.0431697381881869
0.0431596661048455
0.093299166575516
0.0930422624784895
0.0923406389119081
0.0912837974220257
0.0898951365886006
0.088207136172342
0.0862542462252654
0.0840736994813594
0.0817043453218697
0.0791855771392009
0.0765563262039761
0.0738542009431
0.0711148385684742
0.0683714808983427
0.0656549010920355
0.0629959887542163
0.0604476620361357
0.0581122679162321
0.0560597613973432
0.0542660640210766
0.0527065535217304
0.0513571026132367
0.0501948554926515
0.0491985918162791
0.0483488587127125
0.0476279726339087
0.0470199511509386
0.0465104105357698
0.0460864504412225
0.0457365380070612
0.0454503979454787
0.0452189113474529
0.0450340234708784
0.0448886592952135
0.0447766449494733
0.0446926330518235
0.044632030225277
0.0445909250223342
0.0445660191962814
0.0445546132649553
0.0924241092864746
0.0921793508597816
0.0914937961432673
0.090463118672839
0.0891078431137443
0.0874619102948958
0.0855602271944155
0.0834405790743888
0.0811422095735157
0.0787047176441826
0.0761669821101966
0.0735662347891354
0.0709373471489873
0.0683123718643604
0.0657206609476047
0.0631925742885408
0.0607765183814064
0.0585580840234159
0.0566060121344958
0.0548953426198933
0.0534016710081675
0.0521018120357705
0.0509743852653693
0.0499999931694392
0.0491612031611577
0.0484424256481594
0.0478297449744265
0.0473107362156002
0.0468742864188981
0.0465104304317852
0.0462102063978801
0.045965532789959
0.0457691066947977
0.0456143215985815
0.0454952020265075
0.0454063520586197
0.0453429145041142
0.0453005351737891
0.0452753323363302
0.0452639878783017
0.0935805819693881
0.093337565911913
0.0926464064082473
0.0916057391860584
0.0902334692577702
0.0885649957247631
0.086635507066642
0.0844833117518954
0.0821480315289857
0.0796695031833937
0.0770866444810029
0.0744364835053459
0.0717534144699054
0.0690687863215868
0.0664114072716545
0.0638122228951312
0.0613178494140959
0.0590072360304837
0.0569578588607348
0.0551454107246803
0.0535463518093531
0.052138641164047
0.0509022165601027
0.0498190697447366
0.0488731514473142
0.0480501935084187
0.0473375021860364
0.0467237508911507
0.0461987859276415
0.0457534511543653
0.0453794338807925
0.0450691327139208
0.0448155472551045
0.0446121888409097
0.0444530106997245
0.0443323552635134
0.044244915903997
0.0441857060222885
0.0441500356596219
0.0441336660845645
0.0955640747118019
0.0953157725942752
0.0946062016789217
0.0935365167152202
0.092123391773958
0.0904039371138965
0.0884138398651675
0.0861922271241422
0.0837793623343242
0.0812155770191509
0.0785400589340036
0.0757898288979489
0.0729989689693406
0.0701983152076499
0.0674164534367478
0.0646849728359008
0.062048519915558
0.0595820632188165
0.057374877607324
0.0554032088246071
0.0536440400403984
0.0520761011898574
0.0506802276269352
0.0494393642107318
0.0483384073101391
0.0473639849937784
0.0465042313365103
0.045748580466504
0.045087588458845
0.0445127824124248
0.0440165327990967
0.0435919449376006
0.0432327665429645
0.0429333097480488
0.0426883867312028
0.0424932567846142
0.042343582161559
0.0422354088545203
0.0421652726955129
0.0421305649087967
0.0977539878861018
0.0974985911079444
0.0967674041435408
0.0956641456874577
0.094205289114816
0.0924297868593433
0.0903740774198558
0.0880783862938772
0.0855838555754445
0.0829315280496547
0.0801610312870715
0.077309493580334
0.0744107572416437
0.0714952463814153
0.0685914575417456
0.0657310826147579
0.0629552084094449
0.0603345312441167
0.0579700362509648
0.0558379217556744
0.053915269579325
0.0521812859950904
0.0506174689841581
0.0492075229416596
0.0479371035987815
0.0467935249732325
0.0457654887338621
0.0448428629219094
0.0440165142838782
0.0432781863343684
0.0426204106737852
0.0420364392351797
0.0415201877888852
0.0410661863885835
0.0406695430506423
0.040325927797076
0.0400314823411505
0.0397822558051963
0.0395734763758705
0.0394090545303526
0.100160752061272
0.0998993317889792
0.0991480642429891
0.098012702103951
0.0965097021830734
0.0946797064135113
0.0925599119053907
0.0901916878190713
0.08761708691397
0.0848779150880727
0.0820142928223927
0.0790635177167711
0.0760592850803253
0.0730317679115705
0.0700094506763785
0.0670233506188561
0.0641099261647924
0.0613366983485284
0.0588154857215659
0.0565220631977662
0.0544334214607832
0.0525291376763459
0.0507913323268395
0.0492044808942503
0.0477550301282097
0.0464309910531856
0.0452215754588853
0.0441169111412142
0.0431078428681377
0.0421858087095519
0.0413427727112799
0.0405711925775191
0.0398640008206399
0.0392145788797041
0.0386167318618715
0.0380647685135662
0.0375536231106124
0.0370766911404122
0.0366151000691579
0.0361722539331498
0.102927449612332
0.102661781687704
0.101893229196411
0.100729063777089
0.0991854138505538
0.0973042921722216
0.0951233970934545
0.0926850579282466
0.090032072578996
0.0872069193197213
0.0842501862574899
0.0811993999500534
0.078088259912307
0.0749468991879015
0.0718038875078681
0.0686891995578899
0.0656349509173895
0.0627076487058117
0.0600286175409527
0.0575731545780667
0.0553180495243655
0.0532431262699628
0.0513310777634466
0.0495672250691355
0.0479390367174578
0.0464356162945601
0.0450472313373556
0.0437649339365113
0.0425802929224675
0.0414852358538662
0.0404719846114198
0.0395330618796684
0.0386613414668965
0.0378500915389482
0.0370929394421259
0.0363840221389813
0.035719673805053
0.035098906210279
0.0344826849326551
0.0337475908493068
0.106130637713599
0.105860978634257
0.105076032648774
0.103884477352002
0.102301807195515
0.100371141092557
0.0981303956102271
0.0956226660774477
0.0928913287102069
0.0899794671488904
0.0869281623313397
0.0837753126489906
0.0805548783260497
0.0772972624058636
0.0740313902654003
0.0707864773454404
0.0675914255493815
0.0645135557914792
0.0616823176244919
0.0590725674525607
0.0566606891973326
0.0544264275571138
0.0523527375281155
0.0504255867306853
0.0486334668965146
0.0469668402315413
0.0454175911046284
0.0439785434478608
0.0426430778095902
0.0414048621209385
0.0402576934841126
0.0391954395742485
0.0382120712715708
0.0373017398015221
0.0364586302441344
0.035676460568721
0.0349513854988654
0.0342956032990165
0.033687451506121
0.0327012607385069
0.109797313203743
0.109522277135732
0.108720222323729
0.10750133533886
0.105880149299591
0.103900665729809
0.10160072988239
0.0990240195191215
0.0962143332495489
0.0932153200116913
0.0900686192173723
0.0868127011831599
0.0834821109687246
0.0801078946101684
0.0767197142479736
0.0733466912994886
0.0700161293146158
0.0667979178627239
0.0638280241128936
0.0610809430971864
0.0585323468642176
0.0561613518734531
0.0539504703808872
0.0518855302250493
0.0499552705619717
0.0481508363163808
0.0464652294812648
0.0448927730673341
0.0434286242527909
0.0420683614033775
0.0408076572558569
0.0396420418287466
0.0385667834711806
0.0375769495711864
0.0366672972381186
0.0358305276678451
0.0350577770916073
0.0343709547856763
0.0338218277379057
0.0325318915597062
0.113951788454176
0.113667739392436
0.112845770479732
0.111597690459349
0.10993671382578
0.107907529371995
0.10554763265955
0.10290112085842
0.100012070361232
0.0969246700698021
0.09368119737113
0.0903209094962319
0.0868792762629439
0.0833883740854797
0.0798790185236201
0.0763810834646155
0.0729221514164046
0.0695764984760818
0.0664847958175729
0.0636214985915615
0.0609613411980182
0.0584822920834083
0.0561656078316879
0.0539958790068594
0.0519607521237959
0.0500505388108974
0.048257764726598
0.0465767027567907
0.0450029180868307
0.0435328449425696
0.0421634065910268
0.0408916725041133
0.0397145704620146
0.0386288726694225
0.0376314592028263
0.0367167349396058
0.0358700393606355
0.0351166062029451
0.0346468368444008
0.0329983683598076
0.118629838488612
0.118330178661491
0.117482653893238
0.116200659770484
0.114495857059294
0.1124134371341
0.109990312747281
0.107270846652683
0.10429924950731
0.101120211249626
0.097776702946972
0.0943089470571304
0.0907536330818788
0.0871442081571646
0.0835129934196439
0.0798914350753218
0.076309397790511
0.0728476326195978
0.0696491768570731
0.0666893524729897
0.0639419710598724
0.0613837188151603
0.0589942189083371
0.0567561743669867
0.054655187200917
0.0526794684939528
0.0508194975547639
0.0490676710513263
0.0474179645611145
0.0458656207443159
0.0444068762053878
0.0430387126845532
0.0417585576942042
0.040564155308481
0.0394547023150668
0.0384295758936623
0.0374687965830313
0.0365901993969816
0.0362251280405772
0.0342034576536965
0.123874983583637
0.123549889250514
0.122667826689393
0.121343453190335
0.119587155960475
0.117444368190308
0.114951342540738
0.11215252598068
0.109092132869403
0.105815276996873
0.102365630616677
0.0987844802983548
0.0951099270376298
0.091377023453445
0.087619790622718
0.0838717243022975
0.080166596191174
0.0765941635560243
0.0732974693864285
0.070253981008918
0.0674366476947354
0.0648211566128667
0.0623857159587844
0.0601113097479197
0.0579815617392067
0.0559825025125348
0.0541022796343246
0.0523308600666406
0.0506597405252234
0.0490816731990999
0.047590418355699
0.0461805458204482
0.0448471723816685
0.0435853385283215
0.0423911705656849
0.041268116580408
0.0401864180442266
0.0391019376544752
0.0388718935697419
0.0365504389244511
0.129699686764699
0.129331249932892
0.128394329251626
0.127004534012565
0.125173984213959
0.122948439384317
0.120364213011229
0.117465940887678
0.114298093356313
0.110906325188143
0.107335153821394
0.103627059749593
0.0998216911409732
0.0959558645863641
0.0920653374804496
0.0881855381437416
0.0843562506401994
0.0806800539261077
0.0772926770524677
0.0741768660169868
0.0713043924876915
0.0686500193002846
0.0661908033425157
0.0639064452327339
0.0617791519922579
0.0597934488776664
0.0579359178849808
0.0561949386030343
0.0545604448836365
0.0530237051516357
0.0515771273614827
0.0502141148974686
0.0489290018668298
0.047716591915042
0.0465709826081473
0.0454955053347006
0.0444969061352732
0.0433570467400916
0.0435418595988924
0.0414218493735185
0.136536746309558
0.136165351297591
0.135222002140249
0.133820068174329
0.131972726217895
0.129724403678342
0.127110265101829
0.124173410372992
0.120957118171799
0.117506191064877
0.113864864932512
0.110075957613999
0.106180099256692
0.102215609942989
0.0982198702497851
0.094230361285749
0.0902981175692555
0.0865449472034564
0.0830832498673945
0.0799088169270724
0.0769952431800981
0.0743173773241231
0.0718519724005305
0.0695782196622189
0.067477694869759
0.065534209717145
0.0637335801275094
0.062063384562856
0.0605127288978039
0.0590720280204663
0.0577328018767508
0.0564874802583487
0.0553293098398139
0.0542524031328814
0.0532493259110185
0.0523164305313161
0.0514843902874319
0.0504532833455173
0.0509932037898986
0.0505668467982333
0.144075472082476
0.1437053311858
0.142759749896266
0.141352363794607
0.139494866791839
0.137230123031262
0.134591130909346
0.131618964002785
0.128355074299373
0.124842948439173
0.121126163978019
0.117247652352355
0.113248947698538
0.109169957837857
0.105049930981254
0.100928933730959
0.0968684981281847
0.0930084055514427
0.089447752293132
0.0861894852063039
0.0832091006696898
0.0804814649837999
0.0779827038626719
0.0756911193462072
0.0735872756679063
0.0716538890014378
0.0698756181321842
0.0682388299938716
0.0667313642188052
0.0653423135018557
0.0640618241586057
0.0628808873154504
0.0617911724855209
0.0607855904825162
0.0598555376339356
0.0589891501714857
0.0582456626527324
0.0572109123143991
0.0579492221654781
0.0597178239398284
0.152351030611202
0.151983451311786
0.151040358151473
0.149634060542348
0.147773255038155
0.14549863061976
0.14284035438308
0.139836989686925
0.136527648214402
0.132954048077407
0.129158702029184
0.125184338254544
0.121073185624164
0.11686668309394
0.112605987657551
0.108333737008445
0.104121472571545
0.100127031632375
0.0964418945463145
0.0930730661460211
0.0899979005479572
0.0871912793008757
0.0846284961210463
0.0822866988441505
0.0801451611619345
0.0781852560603265
0.0763903068226635
0.074745392765907
0.0732371431484834
0.0718535407967208
0.0705837487947013
0.0694179285566465
0.0683469486925876
0.0673632794187493
0.0664593890194165
0.0656142078597868
0.064926794509196
0.0638505897354842
0.0646467224074955
0.0683718755834224
0.161287591588556
0.1609207973772
0.159979892395926
0.158574923981541
0.156711248169212
0.154427148134085
0.151749642356185
0.148714485771713
0.145358090848522
0.141720032009468
0.137841364527235
0.133764244683284
0.129531278121899
0.125185237849349
0.120769123764736
0.116327972288878
0.111942577079121
0.107788623996678
0.103954740612083
0.100450515852775
0.0972550069311008
0.0943431132065294
0.0916892828656511
0.0892694994442701
0.0870617394570721
0.0850460515972135
0.0832044799155812
0.0815209116754801
0.0799808944628217
0.078571448131919
0.0772808928693747
0.0760986954392237
0.0750150231213164
0.0740215688981175
0.0731128837229103
0.072254640122983
0.071596064623589
0.070460570533521
0.071278918691655
0.0768173727049327
0.170854661220432
0.170487820566534
0.169548570725882
0.168144498188853
0.166277780438779
0.163984255913312
0.161287586230368
0.158220452305234
0.154816199777753
0.151111833808877
0.147146478914729
0.142961247605871
0.138598687783308
0.134102587633827
0.1295176701559
0.124891264491554
0.120312852393422
0.11597594506577
0.111970329673039
0.108307760437494
0.104968972430964
0.101928951092222
0.0991613882722309
0.0966411887092366
0.0943450997994008
0.0922519053444024
0.0903424209787968
0.088599381623826
0.0870072796701931
0.0855521841774511
0.0842215629338322
0.0830041756718271
0.0818895511513278
0.0808681645365617
0.0799382328911531
0.0790469812015095
0.078401161870996
0.0771954351299451
0.0780261479976777
0.0853435802203804
0.181062124120885
0.180695907252441
0.179759619426673
0.178358163596344
0.176490689762177
0.174190490429422
0.171477640222025
0.168381423769246
0.16493167867376
0.161162313880055
0.157109929842747
0.152813990866841
0.148316420771515
0.143661574650779
0.138895698698997
0.134068360188096
0.129277450049071
0.124734640284942
0.120534331941246
0.116690692532733
0.113186308923445
0.109996414573994
0.107094083490329
0.104453232419565
0.102049428337711
0.0998602144567676
0.0978651841352844
0.0960459125139934
0.0943858201636305
0.0928700052724978
0.0914850551398362
0.0902189824013268
0.0890607956329972
0.0879991245470155
0.0870380394057047
0.086101174524863
0.0854584409683344
0.0841749433375382
0.0850092018503161
0.0941206842383382
0.191926945785327
0.191562748155129
0.19063219115824
0.189237071589675
0.187373554884011
0.185072189903315
0.182349203405029
0.179230109707961
0.175740737572922
0.171911283553515
0.167775112911855
0.163369290063191
0.158734385315138
0.153914696405833
0.148957633587187
0.143914882372393
0.138892610262928
0.134121257648616
0.129702953591486
0.125655028937398
0.121962308804786
0.118600548754044
0.115542399434207
0.112760893186619
0.110230458181152
0.107927404740304
0.105830090566549
0.10391890528727
0.102176164568014
0.100585960915848
0.0991339628818081
0.097807352940101
0.0965947936230331
0.0954821501779891
0.0944818246079366
0.0934890782408037
0.0928418106973953
0.0914749061093452
0.0923033768640351
0.103251501954025
0.20345976673406
0.203099258835819
0.202178104901983
0.200794436700836
0.198941453506791
0.196646729837815
0.193922390891264
0.190789789654117
0.187270217863004
0.183389479796648
0.179176888637605
0.174666200275792
0.169895703311765
0.164908778430401
0.159753392442308
0.154483044425525
0.149212041632148
0.144190348819202
0.139530732781804
0.135254896036643
0.131350538862026
0.127794365645176
0.1245588862686
0.121616394714715
0.118940239867614
0.116505508322447
0.114289300143859
0.112270779573313
0.110431106530464
0.108753312562485
0.107222098185729
0.105823680504053
0.104546644411564
0.103372921829238
0.102325847407038
0.101267862902826
0.100609049692628
0.0991542831274012
0.0999674966533605
0.112813703992855
0.215665282681655
0.215310348741728
0.214403020491562
0.213037108846854
0.211202907328794
0.208924803976569
0.206210612009169
0.2030771509189
0.199540653687356
0.19562181877227
0.191345005558434
0.186739598754084
0.181840454477331
0.176688888582572
0.171332482722193
0.165825942936337
0.160291424821301
0.154999184623343
0.15007540649042
0.14554784472297
0.141408024123955
0.137634237463135
0.134199267613823
0.131074889172864
0.128233468577956
0.12564889009825
0.123296970765648
0.121155597412044
0.119204706791298
0.117426193381759
0.115803735865704
0.114322389020133
0.112971039037481
0.111726323656892
0.110625144836896
0.109492997014076
0.108815627666236
0.107269172450219
0.10805753475704
0.122878383673285
0.228544527756067
0.228197292355655
0.227308967419899
0.225968296370632
0.224162794359111
0.221913494468497
0.219223757716087
0.216105552078604
0.212569575618988
0.208630715285127
0.204307428516608
0.199623537792466
0.194609092871916
0.189301872954918
0.183747716649832
0.178001497280699
0.172192585964476
0.166612114419076
0.161402344898215
0.156599277400803
0.152199605205558
0.148184142941071
0.144526552702439
0.141198424732162
0.138171305212209
0.135417927566887
0.132912808865355
0.130632502656523
0.128555645442751
0.126662900754547
0.124936876586516
0.12336119872738
0.121925539883907
0.120599742650749
0.119436877183243
0.118221734423523
0.117518378916816
0.115876624523032
0.116630303778613
0.13351609376062
0.242095338137274
0.241758156646594
0.240894732589348
0.239587912383698
0.237822639916233
0.235616485263395
0.232968311742185
0.229885009445645
0.226371357704185
0.222435790223913
0.218089928167918
0.213350767237601
0.208241986457757
0.202796025765392
0.197055139862625
0.191072755243486
0.184984249299077
0.179101741121244
0.173586026238256
0.168484095827172
0.16379965000785
0.159517362242483
0.155612663976775
0.152057480094271
0.148822810071273
0.145880348105745
0.143203322372461
0.140766905792019
0.138548356672472
0.136526998433051
0.134684333062222
0.133002217827153
0.131471687899115
0.13005420018119
0.128821486695977
0.127514344507445
0.126776838182616
0.125036096529995
0.125744856862534
0.144799236808522
0.256311754891302
0.255987171984849
0.255155164941297
0.253891788889779
0.252179716131946
0.250033023086259
0.247446149236407
0.244420810961945
0.240955629489847
0.237052075846594
0.232714096009307
0.227950608622355
0.222777243264596
0.217219008661977
0.211312225995978
0.205106561135623
0.198741342850943
0.192548911615922
0.186710612363771
0.181287705908075
0.176293331978031
0.171717902778925
0.167539924798127
0.163732464231246
0.160266430793469
0.157112697804648
0.154243272323286
0.1516319243181
0.149254465466768
0.147088756579964
0.14511517789704
0.143313407676638
0.141676486103558
0.1401558579433
0.138844216193581
0.13743565425042
0.136654820136333
0.134811083300985
0.135464065769842
0.156804144535038
0.271183406648064
0.270874102797136
0.27008050368933
0.268870937842561
0.267226208337928
0.2651569596757
0.262653422393162
0.25971221002181
0.256325743011047
0.252488227559015
0.248195289715961
0.243446655572608
0.238248240035395
0.232615349552045
0.226575563706872
0.220171709834349
0.213543903386222
0.207042539737492
0.200870657380263
0.195107444558227
0.189778561777183
0.184882736612528
0.1804034501699
0.176316159655609
0.172592439617177
0.16920274325151
0.166118027356946
0.163310687643324
0.160755045480635
0.158427367441886
0.156306919623413
0.154370727493462
0.152614513308706
0.150978108391419
0.149577168873515
0.148057083101721
0.147222434639533
0.145271137203873
0.145856587932036
0.169613457658626
0.286695171389384
0.286403902339786
0.285656003390464
0.284511126116308
0.282948712681436
0.280976138869533
0.278579796375327
0.275751461592177
0.272477553953812
0.268744993425458
0.264540742861976
0.259854501820163
0.254680998812466
0.249023581471677
0.242897983909141
0.236336409268743
0.22947529931301
0.222678942918174
0.216171675824308
0.210054256195414
0.20436851337769
0.199124881284571
0.194314524535424
0.189917208158728
0.185906406797755
0.182252865967118
0.178926848148022
0.175899501471272
0.173143664640418
0.170633879981261
0.168348333063912
0.166260874029464
0.164370578162515
0.162604158502937
0.161101821442795
0.159459097088087
0.158558482476266
0.156494237577426
0.156999175335684
0.183318861486903
0.302827055814527
0.302556583848524
0.301861777850942
0.300792674702324
0.299327964938318
0.297472021322777
0.295207925268196
0.29252309161766
0.289398412724902
0.285813842984075
0.281747742592501
0.277179390022039
0.272091269551127
0.266472805304718
0.260324787304027
0.253664543579188
0.246619087982354
0.239559899632533
0.232729797026108
0.226253989160627
0.220194330037153
0.214577131996009
0.209404957215851
0.204664753760696
0.200333894943078
0.196384665266785
0.192787325483785
0.189512092125943
0.18653043139459
0.183815058005183
0.181343140789204
0.179084806591905
0.177043098331916
0.175130285985841
0.173512163048659
0.171734250523081
0.170753397791748
0.168569671895599
0.168979470597347
0.198024351639467
0.319554221231978
0.319307238615235
0.318672794370938
0.317690414693519
0.316338735856097
0.314619488171013
0.312513119897787
0.310003367525116
0.307066354871594
0.303675770846159
0.299801917214039
0.295413841745064
0.290481374213174
0.284978680943223
0.278888953493405
0.272210404759353
0.265053888575464
0.257788539258492
0.250669493319308
0.243847383099522
0.237407342683923
0.231396129352533
0.225832443722786
0.220714540850064
0.216026845022036
0.211745326981901
0.207841555753398
0.204285506356045
0.20104759289462
0.19809868351966
0.195415037570386
0.192962521413041
0.190748643174839
0.188670182617381
0.18691885189472
0.184991187127684
0.183913092141824
0.181601769188695
0.181899610731416
0.213850389542613
0.3368471473334
0.33662619461514
0.3360590160352
0.335173803710124
0.333949905168151
0.332386847718997
0.330463248344502
0.328160033834687
0.325449586043318
0.322300410371668
0.318675816822681
0.314535501510897
0.309837082664162
0.304539114884746
0.29860551448413
0.292011855666978
0.284845846662208
0.277462149981406
0.270118057673902
0.262987271346146
0.256179498786224
0.249765900094391
0.243786630544988
0.238256694722578
0.233172280969262
0.228516624566277
0.224265021738892
0.22038864229926
0.216857618358552
0.213641176661999
0.210714864698297
0.208039822578398
0.20562833412528
0.203361032625432
0.201454995989502
0.199360171212675
0.198164239503122
0.1957150000444
0.195881125599194
0.230939499881094
0.354671950010494
0.354479332328223
0.353985710745394
0.353207225523004
0.35212474382834
0.350736085120455
0.349018924745053
0.346952391631564
0.34450637402697
0.341645617876115
0.33832801239468
0.33450550220103
0.330124918354614
0.325130117593869
0.319465574759024
0.313082263845122
0.306038629677225
0.298661152606315
0.291195260894091
0.283830786773905
0.276699582256678
0.26989877113073
0.263494524990773
0.257524753766267
0.252003771294289
0.246927638845667
0.242279640593095
0.238035013849721
0.234165352482446
0.230639019022749
0.227431296961258
0.224498331871183
0.221857239047626
0.219372372210114
0.217284526443968
0.21500105140957
0.213661846461482
0.211061240326906
0.211071881536039
0.249464162231174
0.372990865071804
0.372828568356294
0.372413936591705
0.371750483013887
0.370821417608905
0.369623374551813
0.368134017302494
0.366331772072595
0.36418542937531
0.361657658296042
0.35870291917399
0.355267665599829
0.351290351994268
0.346702460013104
0.341430764573297
0.335402039891
0.328641549181496
0.321434115449944
0.31399685517059
0.306523856680737
0.299161431509679
0.292029509766411
0.285221634812865
0.278803593298529
0.272814884235016
0.267271953187696
0.262172883026956
0.257502316407652
0.253237038196948
0.249346715185818
0.245807563218318
0.242571004316016
0.239658791423505
0.236919563693046
0.234614834578705
0.232115195670343
0.230600531625671
0.227830529612357
0.227656313089369
0.269638408670431
0.391762902444432
0.391632507940259
0.391301200019241
0.390759477831508
0.389993704544183
0.388999848119955
0.387756475494331
0.386242416344221
0.384426810832152
0.382272071174838
0.379731495924884
0.376748807704894
0.373257334195971
0.369179839286535
0.364429166795554
0.3589111584597
0.352617347560786
0.345779966965597
0.338571818267465
0.33117578826802
0.323739526969843
0.31639608348639
0.30926144997633
0.302429613123661
0.295970113126884
0.289927639747676
0.284324109917767
0.279162167588753
0.274430920326788
0.270106481756264
0.266169242854393
0.262567717935655
0.259328244833364
0.256285395246602
0.253716785017607
0.25096420639434
0.249232078687958
0.246267695605962
0.245871137447892
0.291735632955417
0.410944678192337
0.410847265231102
0.41060227499413
0.41018705750108
0.409591902095426
0.408812594169616
0.407829448016928
0.406622736459941
0.405163340849328
0.403415228733223
0.401332886615134
0.398860319035851
0.395929520471614
0.392459210967953
0.388353843519018
0.383504441040826
0.377872177487855
0.371630386483412
0.364895771666712
0.357824292617224
0.350548658546544
0.34319929298461
0.335901579228782
0.328769469971008
0.32190026395077
0.315370411318253
0.309233654855608
0.303521140838539
0.298245301813425
0.293398644054835
0.288973393309945
0.284920982191392
0.281274125245138
0.277857435221698
0.274958543999153
0.271900975955075
0.269894200866101
0.266699340397009
0.266030670601929
0.316117375261994
0.430491453225209
0.430427458048057
0.43027016747448
0.429984001085857
0.429563886243588
0.429005839029734
0.428292636928576
0.42740689386183
0.426322462127762
0.425006519035349
0.42341695897635
0.421501036066325
0.419193342909473
0.416413716247285
0.413064892703751
0.409031385264683
0.404250885542037
0.398837120436185
0.392846490114956
0.386396411311345
0.379589967728874
0.3725373211937
0.365354184536992
0.358156646195843
0.351055979083213
0.344152821924549
0.33753223947736
0.331259893898048
0.325382333540696
0.319922037184943
0.314896534711084
0.310273506257671
0.306099697619668
0.302200701095124
0.298869182190362
0.295425780739269
0.293060943323247
0.289580329198651
0.288569976714942
0.343282799550841
0.450358471253655
0.450327406582299
0.450257208148662
0.450100106664059
0.449856274688725
0.449522253131348
0.4490838144293
0.448526603250757
0.44782841879397
0.446961011261316
0.445887573852154
0.444561233306094
0.442922804084401
0.44089823587034
0.438395441133951
0.435301736887579
0.431540346946515
0.427169597146171
0.422190299186818
0.416677223028756
0.410695983637369
0.40432386774907
0.397649206869788
0.390768539385065
0.383783855477516
0.376798370412404
0.369911704254434
0.36321456753184
0.356786351398014
0.350686517487323
0.344970332018943
0.339640461118353
0.334773185751792
0.330219565552472
0.326281007130135
0.32230555312822
0.319441469666193
0.315579560464122
0.314124123277064
0.373962567718667
0.470502823682676
0.470502554778208
0.470516177489355
0.470485240705178
0.470415526731933
0.470304188012477
0.470140282153585
0.469912914235541
0.469604485793455
0.469192295857466
0.46864624637459
0.467927370619273
0.466985625744143
0.465757268643898
0.464161485253186
0.462097243662673
0.459482559745386
0.45632740340258
0.452589055826625
0.448303415279295
0.443500047673293
0.438221255932038
0.432520571531271
0.426461085467454
0.420114988526337
0.413562066549034
0.406887376263066
0.400177857634447
0.393520606422019
0.386994562327878
0.380683059713461
0.374627557507492
0.368940120384238
0.363526510666381
0.358706272163053
0.353912929216369
0.35024578432964
0.345766579955843
0.343663340893836
0.409285417158013
0.490890217987738
0.490915082348037
0.491005578152584
0.491094652188409
0.491193315693077
0.491299015205593
0.491404064596105
0.491501152616182
0.491577566422369
0.491616683905854
0.49159594773518
0.49148558228908
0.491246630131092
0.490828562762891
0.490166241682023
0.489177183979749
0.48778182208682
0.485948670820876
0.483607058970137
0.480762700178978
0.477417414183156
0.47358649566673
0.46929461096757
0.464573556867352
0.459462365409291
0.454006986647148
0.448259455033865
0.44227640866657
0.436118763710107