/*--------------------------------*- C++ -*----------------------------------*\
| =========                 |                                                 |
| \\      /  F ield         | OpenFOAM: The Open Source CFD Toolbox           |
|  \\    /   O peration     | Version:  2112                                  |
|   \\  /    A nd           | Website:  www.openfoam.com                      |
|    \\/     M anipulation  |                                                 |
\*---------------------------------------------------------------------------*/
FoamFile
{
    version     2.0;
    format      ascii;
    arch        "LSB;label=64;scalar=64";
    class       volScalarField;
    location    "0.01";
    object      p_rgh;
}
// * * * * * * * * * * * * * * * * * * * * * * * * * * * * * * * * * * * * * //

dimensions      [1 -1 -2 0 0 0 0];

internalField   nonuniform List<scalar> 
5240
(
1029586.44037899
1029602.71672638
1029642.49993948
1029702.8131012
1029782.17426896
1029878.83772329
1029990.84250529
1030116.04352476
1030252.17412776
1030396.90991175
1030547.92870652
1030702.96202752
1030859.83584201
1031016.49916852
1031171.03907804
1031321.6805844
1031465.37716203
1031595.76629826
1031709.67321554
1031808.53571378
1031893.81862825
1031966.95841342
1032029.32186587
1032082.18357459
1032126.71590607
1032163.98654876
1032194.96038684
1032220.50375079
1032241.38992095
1032258.30526433
1032271.85567032
1032282.57309518
1032290.9220859
1032297.30617292
1032302.07402667
1032305.52528167
1032307.91595144
1032309.46338578
1032310.35075575
1032310.73108404
1028235.93409495
1028262.53834556
1028330.96519546
1028434.52321283
1028570.61384372
1028736.11394813
1028927.57834302
1029141.26366604
1029373.23880103
1029619.49637347
1029876.05680617
1030139.0569148
1030404.81856947
1030669.89592856
1030931.1003888
1031185.48656501
1031427.9351613
1031647.57934247
1031838.77914319
1032004.1386198
1032146.33981393
1032267.97593699
1032371.4777942
1032459.08123238
1032532.81725679
1032594.51477177
1032645.80996383
1032688.15881362
1032722.85075418
1032751.02242866
1032773.67105506
1032791.6672145
1032805.76703455
1032816.62379887
1032824.79901939
1032830.77298382
1032834.95475658
1032837.69157757
1032839.27756474
1032839.96165584
1028409.89043979
1028433.16013132
1028498.5502166
1028597.09192081
1028726.46785773
1028883.54154197
1029064.96835281
1029267.13562721
1029486.27450895
1029718.56594766
1029960.24113067
1030207.66615096
1030457.40671895
1030706.27180467
1030951.33824763
1031189.92825613
1031417.31862506
1031623.38206475
1031802.88629268
1031958.3344632
1032092.24378423
1032207.03906106
1032304.9849137
1032388.15673517
1032458.43351945
1032517.50243974
1032566.86941605
1032607.87234038
1032641.69505389
1032669.38103604
1032691.84629369
1032709.89125835
1032724.21168296
1032735.40862249
1032743.9976163
1032750.41718847
1032755.03676598
1032758.16409931
1032760.0520816
1032760.90358609
1028680.66112775
1028700.17504155
1028759.22922798
1028848.08068336
1028965.02080788
1029107.05279074
1029271.12346793
1029453.93226551
1029652.04969838
1029862.01166374
1030080.41238567
1030303.98261252
1030529.6492305
1030754.57512007
1030976.18387911
1031192.14189772
1031398.26671311
1031585.46787382
1031749.04983525
1031891.27472714
1032014.35334579
1032120.40584316
1032211.40423547
1032289.15048118
1032355.27254577
1032411.23031889
1032458.32654936
1032497.71993564
1032530.4386942
1032557.39364399
1032579.39029301
1032597.13970712
1032611.2681391
1032622.32552637
1032630.79304004
1032637.08989381
1032641.57962174
1032644.57608848
1032646.34906602
1032647.12346325
1028619.47846037
1028637.30756204
1028695.27267196
1028782.96301642
1028899.25622884
1029041.0324313
1029205.27928554
1029388.6935022
1029587.84215163
1029799.25319516
1030019.51223403
1030245.34389447
1030473.67452336
1030701.67436536
1030926.78699482
1031146.7220537
1031357.30185796
1031549.2886499
1031717.83269537
1031865.16804101
1031993.44462447
1032104.7201953
1032200.90033367
1032283.72150751
1032354.74935224
1032415.38586784
1032466.8812043
1032510.34752269
1032546.77347769
1032577.038452
1032601.92599484
1032622.13610422
1032638.29611661
1032650.97006375
1032660.66643676
1032667.8443557
1032672.91821359
1032676.26123399
1032678.20823039
1032679.04707306
1028375.10081345
1028392.89992048
1028453.47830545
1028545.61593007
1028668.55593304
1028818.85311199
1028993.36361583
1029188.5706269
1029400.8237262
1029626.42695421
1029861.74767224
1030103.30716071
1030347.85136746
1030592.39882201
1030834.27683496
1031071.12641939
1031298.54178507
1031506.55457467
1031689.86903497
1031850.84988674
1031991.75838839
1032114.75198848
1032221.81764656
1032314.75911162
1032395.19723674
1032464.57879197
1032524.18922831
1032575.16709145
1032618.51890387
1032655.13389113
1032685.79818235
1032711.20822902
1032731.98325382
1032748.67661255
1032761.7860514
1032771.76292973
1032779.02050237
1032783.94172313
1032786.88647328
1032788.18433161
1028088.17936475
1028106.2404944
1028170.28911885
1028268.11917709
1028399.20667386
1028559.71349386
1028746.32991822
1028955.27110895
1029182.62365754
1029424.4237505
1029676.7825262
1029935.98778314
1030198.58489043
1030461.43195425
1030721.74550352
1030977.12205135
1031222.92069478
1031448.34216773
1031647.65442143
1031823.41273597
1031978.0366815
1032113.82041838
1032232.86378256
1032337.06584251
1032428.12887461
1032507.57007405
1032576.73569443
1032636.81544577
1032688.85627561
1032733.77529688
1032772.37185997
1032805.33879619
1032833.27279591
1032856.68376178
1032876.00287823
1032891.58937325
1032903.73639728
1032912.67363615
1032918.55086006
1032921.39886349
1027777.27892669
1027795.37958882
1027862.82691114
1027966.38004977
1028105.73505552
1028276.64775878
1028475.6445096
1028698.65281889
1028941.4835831
1029199.88899564
1029469.70922732
1029746.98617164
1030028.0562907
1030309.6133231
1030588.76484925
1030863.09125382
1031127.75278891
1031371.06400926
1031586.87338809
1031777.96284005
1031946.91846415
1032096.17062367
1032227.92837335
1032344.18249618
1032446.71628239
1032537.12323313
1032616.82534346
1032687.0899004
1032749.04425843
1032803.68889864
1032851.90936261
1032894.48763758
1032932.11350057
1032965.39617579
1032994.87535866
1033021.02760424
1033044.27337705
1033065.06139896
1033084.14069966
1033101.46870405
1027415.66661342
1027433.77315094
1027504.80355927
1027614.49581997
1027762.80103712
1027945.05574679
1028157.6174997
1028396.09531242
1028655.99713381
1028932.75610945
1029221.90486194
1029519.20172614
1029820.73768667
1030123.00688471
1030422.97137993
1030718.18266251
1031003.62019519
1031266.62273673
1031500.56709867
1031708.49555512
1031893.17342883
1032057.17475949
1032202.81818662
1032332.18052612
1032447.11620603
1032549.28347459
1032640.1694742
1032721.11173064
1032793.31531915
1032857.8661534
1032915.74133317
1032967.81750399
1033014.87815597
1033057.62145478
1033096.66988671
1033132.57024149
1033165.74527122
1033196.5004054
1033226.07358734
1033258.45860679
1026982.24267162
1027000.53598619
1027075.6710293
1027192.30337054
1027350.67068306
1027545.67036903
1027773.49037605
1028029.39281771
1028308.55646249
1028606.05723637
1028917.07692718
1029237.04146756
1029561.74494642
1029887.43049065
1030210.85691673
1030529.4882741
1030838.08449182
1031122.92125187
1031376.85417496
1031603.21096531
1031804.96176586
1031984.85029147
1032145.31978201
1032288.53426875
1032416.40489986
1032530.62464463
1032632.70140638
1032723.98625407
1032805.69523397
1032878.92484203
1032944.66216835
1033003.7909974
1033057.09492019
1033105.25999598
1033148.88613821
1033188.50681958
1033224.49817135
1033256.69887199
1033285.76115958
1033323.09778977
1026465.90854799
1026484.81953317
1026564.89524568
1026689.58602163
1026859.44304145
1027068.89470567
1027313.95889887
1027589.52047003
1027890.40145634
1028211.27865611
1028546.93465823
1028892.40688734
1029243.13199958
1029595.04197826
1029944.62686672
1030289.18477639
1030623.18608165
1030931.75770678
1031207.21147029
1031453.19553086
1031672.93214096
1031869.38768718
1032045.17583232
1032202.58237309
1032343.59447095
1032469.94230201
1032583.14101096
1032684.52905585
1032775.30041788
1032856.52990484
1032929.19196828
1032994.1740483
1033052.28454507
1033104.25497568
1033150.75056767
1033192.43321354
1033229.9496115
1033263.03138676
1033290.47199381
1033330.23346894
1025856.83505977
1025877.13121051
1025963.32446458
1026097.51308924
1026280.59716997
1026506.50072178
1026771.07132795
1027068.78347842
1027394.07395517
1027741.17603962
1028104.42198947
1028478.40051914
1028858.12449843
1029239.14858628
1029617.62522282
1029990.59644434
1030352.14841981
1030686.17551751
1030984.44938145
1031250.97384109
1031489.28676089
1031702.65440147
1031893.94167265
1032065.63770817
1032219.8828966
1032358.51337092
1032483.10833546
1032595.03628417
1032695.49684523
1032785.55658089
1032866.1781675
1032938.24345596
1033002.56986532
1033059.91348268
1033110.96347305
1033156.42589942
1033197.22427566
1033233.35114838
1033261.01572798
1033303.4415458
1025141.79916452
1025164.77072585
1025258.78814461
1025404.44666064
1025603.03076407
1025847.9176852
1026134.77926282
1026457.6408349
1026810.52218476
1027187.1654709
1027581.39898789
1027987.29976631
1028399.3864756
1028812.76525165
1029223.1811336
1029627.3216214
1030018.76745904
1030380.09498774
1030702.56632753
1030990.55038497
1031247.96302929
1031478.44897528
1031685.21364165
1031871.04914776
1032038.35529575
1032189.18251079
1032325.27847907
1032448.1351171
1032559.0325357
1032659.07834939
1032749.24153369
1032830.38163146
1032903.27500771
1032968.62867355
1033027.05846639
1033079.14654917
1033125.92217267
1033167.98388204
1033198.58025907
1033245.36190522
1024303.78945024
1024331.45037581
1024435.75007922
1024595.65417498
1024812.8191094
1025080.02789423
1025392.75327435
1025744.52733337
1026128.91617585
1026539.12195737
1026968.41517839
1027410.29911024
1027858.72808654
1028308.28640975
1028754.24486589
1029192.83717483
1029616.98542451
1030007.85256885
1030356.28898876
1030666.96966743
1030944.23512981
1031192.16120685
1031414.35422176
1031613.97814783
1031793.77008151
1031956.08188845
1032102.9252835
1032236.01751745
1032356.82425834
1032466.59823756
1032566.41271486
1032657.18986976
1032739.72833196
1032814.72990264
1032882.77376996
1032944.2484545
1033000.0123778
1033051.77040395
1033089.10490056
1033143.60381344
1023322.67020416
1023357.87078428
1023475.84288645
1023653.83480324
1023893.7109276
1024187.63493524
1024530.80928313
1024916.233829
1025336.97485876
1025785.64818255
1026254.91455868
1026737.64717605
1027227.17362122
1027717.48763985
1028203.32580855
1028680.39215818
1029140.8266512
1029564.30774771
1029941.25759446
1030276.57807003
1030575.09497655
1030841.34578439
1031079.36414758
1031292.70813623
1031484.47455764
1031657.3419158
1031813.61725404
1031955.28371881
1032084.04553858
1032201.36930513
1032308.52085622
1032406.59671169
1032496.55200029
1032579.23799369
1032655.42327703
1032725.60430626
1032790.20636043
1032853.38696673
1032901.10575095
1032969.26264548
1022156.42572477
1022199.15938524
1022331.7466095
1022529.9661687
1022795.21643514
1023118.99298363
1023496.04459834
1023918.82037568
1024379.82371919
1024871.05747169
1025384.54114878
1025912.49079255
1026447.57656752
1026983.15730086
1027513.39155016
1028033.41499927
1028534.54593914
1028995.00039175
1029404.17672265
1029767.22342401
1030089.55497324
1030376.18685701
1030631.58254862
1030859.68574487
1031063.94094809
1031247.33839734
1031412.463938
1031561.54862546
1031696.51487018
1031819.01805024
1031930.48343522
1032032.13798754
1032125.03584623
1032210.08704992
1032288.11603737
1032359.77750537
1032424.91413773
1032488.16321057
1032537.29745291
1032601.98818329
1020746.75131704
1020791.98647316
1020935.04957
1021149.24283743
1021436.20329689
1021786.83107699
1022195.76547142
1022655.08589475
1023156.91771362
1023692.74989541
1024253.9923359
1024832.15842981
1025419.14815278
1026007.51539258
1026590.62658025
1027162.77337077
1027714.1214138
1028220.8398275
1028670.6277313
1029068.95352997
1029421.82367833
1029734.75181645
1030012.65835145
1030259.89969009
1030480.2864404
1030677.13148488
1030853.30482683
1031011.28842504
1031153.22745782
1031280.97660311
1031396.14114389
1031500.11317223
1031594.10054177
1031679.1466893
1031756.19326769
1031826.21473383
1031888.55751029
1031949.10105717
1031993.80452311
1032053.29958635
1019098.12290472
1019145.22345835
1019297.94755434
1019527.31883098
1019835.7596312
1020213.74340219
1020656.01891305
1021154.41611712
1021700.78562934
1022286.14588724
1022901.28789035
1023536.9539234
1024184.15265082
1024834.46579889
1025480.28284591
1026114.84656771
1026726.71842754
1027289.31668578
1027788.54353272
1028230.25757184
1028621.07164967
1028967.05584213
1029273.67642347
1029545.79601952
1029787.68148209
1030003.05322449
1030195.14439398
1030366.76110715
1030520.33924831
1030657.9957024
1030781.57339633
1030892.6809609
1030992.72680709
1031082.93445542
1031164.35693885
1031238.37588493
1031303.7780263
1031368.03319019
1031415.13854746
1031473.90030707
1017206.58552497
1017256.17121338
1017419.13684146
1017664.46534915
1017995.64415794
1018402.81972266
1018880.99433171
1019421.84009276
1020017.02005887
1020657.1337848
1021332.37151217
1022032.67834077
1022748.10136802
1023469.13280017
1024187.04526867
1024893.90541891
1025576.36270746
1026204.45510397
1026762.02137841
1027255.35552832
1027691.70589913
1028077.75880183
1028419.60515388
1028722.69374485
1028991.82353044
1029231.19021663
1029444.4465731
1029634.76620669
1029804.90493828
1029957.2568029
1030093.90346252
1030216.65752081
1030327.10337507
1030426.62484332
1030516.3058218
1030597.95993989
1030669.62614408
1030740.42230201
1030793.38946451
1030854.99005948
1015063.2203695
1015115.92902033
1015290.14931275
1015552.79087881
1015908.49896861
1016347.11545788
1016864.01510295
1017450.801801
1018099.05569367
1018799.03915293
1019540.39934886
1020312.30134435
1021103.80303262
1021904.22534779
1022703.59916491
1023492.69472469
1024255.97634261
1024959.4605117
1025584.53023666
1026137.91188413
1026627.51608374
1027060.69756628
1027444.23382415
1027784.21979021
1028086.04274429
1028354.42358923
1028593.47686956
1028806.77808726
1028997.43051213
1029168.12739344
1029321.2076725
1029458.70423858
1029582.38969472
1029693.84334173
1029794.15345881
1029885.68279657
1029965.60202537
1030044.53365265
1030105.19648506
1030172.06020966
1012644.89729306
1012700.91795202
1012886.9667231
1013167.8186349
1013549.34651283
1014021.11999071
1014579.02761817
1015214.72758925
1015919.86477289
1016684.4934533
1017497.82306441
1018348.29759354
1019223.989393
1020112.98330087
1021003.9329013
1021886.15089978
1022741.59050224
1023531.51183998
1024234.33455106
1024857.16123211
1025408.57054289
1025896.62732794
1026328.85398663
1026712.05359276
1027052.26447615
1027354.79304402
1027624.27216781
1027864.73185827
1028079.67168755
1028272.12946555
1028444.74372772
1028599.80760446
1028739.31084785
1028865.0841891
1028978.19139365
1029081.68106818
1029171.81096916
1029260.50534128
1029330.45660876
1029404.51884374
1009922.10739449
1009981.31504701
1010179.23318329
1010478.52333944
1010886.40061953
1011392.24194146
1011992.62914458
1012679.44169585
1013444.5882229
1014278.10076862
1015168.91500007
1016104.86716716
1017073.09104479
1018060.39821911
1019053.9301994
1020041.34747883
1021001.70503668
1021890.65138823
1022682.99265346
1023386.08651471
1024009.15540746
1024561.00297134
1025049.95485388
1025483.59278873
1025868.68172472
1026211.18820638
1026516.33417807
1026788.66963306
1027032.14998237
1027250.2108908
1027445.8375917
1027621.62716482
1027779.81193234
1027922.53579414
1028050.79373925
1028168.44056779
1028270.83643133
1028371.03237051
1028451.84400422
1028534.83869142
1006864.64569281
1006926.74704066
1007136.14841157
1007453.50102088
1007887.5064873
1008427.4681945
1009070.87410728
1009810.03602653
1010637.37906316
1011543.16377721
1012516.28962311
1013544.17506625
1014613.13289596
1015708.72156803
1016816.46727361
1017922.1771015
1019001.57369869
1020003.71202378
1020898.96384321
1021694.73096957
1022400.8090406
1023026.74475527
1023581.71694362
1024074.15810958
1024511.64195138
1024900.87811885
1025247.75678654
1025557.42097682
1025834.34794952
1026082.43005148
1026305.05057569
1026505.16066423
1026685.26077105
1026847.8835388
1026993.91155536
1027128.10865986
1027244.99011796
1027358.60590345
1027451.97255645
1027545.65092713
1003442.71137389
1003507.26271162
1003727.33618537
1004061.75197972
1004520.84400054
1005093.98580033
1005779.80747601
1006571.30432095
1007461.72448417
1008441.87985397
1009500.95991083
1010626.25634368
1011803.48170155
1013017.05600761
1014250.85705255
1015488.66389308
1016702.40505943
1017833.43151855
1018846.65769799
1019749.19272265
1020551.26166471
1021263.11457465
1021894.81176999
1022455.70168881
1022954.25048691
1023398.00012232
1023793.59678302
1024146.85918941
1024462.86234078
1024746.02404061
1025000.18557705
1025228.71364879
1025434.40517203
1025620.2722019
1025787.05016162
1025940.49945932
1026074.36043227
1026203.59619788
1026311.46165656
1026417.74619484
999626.536100648
999692.909869188
999922.343244922
1000272.09001594
1000754.24734811
1001358.41800375
1002084.62287595
1002926.82494812
1003879.45156137
1004934.26315922
1006081.16493632
1007307.73588845
1008599.44602849
1009939.82952471
1011311.20171588
1012695.2119432
1014059.54023642
1015336.60469854
1016484.59926388
1017509.82914616
1018422.69434678
1019234.03698103
1019954.78775483
1020595.25907972
1021164.88997007
1021672.14875033
1022124.53472627
1022528.63634646
1022890.21412413
1023214.29207078
1023505.23902208
1023766.91164678
1024002.43438611
1024215.40166916
1024406.37912239
1024582.19994749
1024735.90648335
1024883.32367392
1025007.962118
1025129.03902957
995386.42664325
995453.785360937
995690.688240885
996053.184561009
996555.238954992
997186.850401858
997949.67896927
998838.960306107
999850.695176701
1000978.05812996
1002212.19767702
1003541.53314617
1004951.81915844
1006426.14377904
1007945.52825831
1009489.53231281
1011021.20527744
1012462.72429999
1013764.02289475
1014929.85447061
1015970.37698773
1016896.80126096
1017720.85008361
1018453.81345099
1019106.17044244
1019687.40961288
1020205.98761965
1020669.36742822
1021084.09483829
1021455.89356408
1021789.73945828
1022090.06789743
1022360.36608782
1022604.92447673
1022824.13120734
1023025.96253303
1023202.84362011
1023371.43795515
1023515.52169549
1023653.91313209
990693.372064486
990760.658876976
991002.512502508
991374.244183473
991891.748837577
992545.586268078
993339.286131976
994269.663476979
995334.704107604
996529.513065657
997847.101636597
999277.425732883
1000807.24643894
1002419.8831703
1004095.59040103
1005812.11531278
1007527.67253203
1009152.90117755
1010627.639394
1011954.03109076
1013141.34343792
1014200.76085152
1015144.60839861
1015985.10321458
1016733.80017238
1017401.29138674
1017997.09700136
1018529.66801099
1019006.44699958
1019433.96480312
1019817.89477351
1020163.35613467
1020474.24128537
1020755.66070555
1021007.83482708
1021239.95204306
1021443.90530444
1021637.19643299
1021803.87693414
1021962.52146809
985519.866330952
985585.806887484
985829.441713015
986205.917549881
986733.063795088
987402.149581554
988218.764300289
989181.585036162
990290.981025557
991544.523820037
992937.771579218
994463.041511752
996109.02575358
997860.230900437
999697.011565007
1001595.93519345
1003510.5114755
1005338.72322209
1007008.21063665
1008517.06803377
1009872.70564722
1011085.63078603
1012168.40134512
1013133.99855771
1013995.02586792
1014763.23313479
1015449.30210631
1016062.78970141
1016612.15730222
1017104.86529803
1017547.38747893
1017945.6505409
1018304.00538531
1018628.5172875
1018919.26856404
1019186.73151875
1019422.35792198
1019644.50749681
1019837.52152337
1020019.87514382
979840.74571009
979903.860087853
980145.461999531
980521.212649141
981050.804273507
981726.332605289
982555.571613321
983539.287693036
984680.578818101
985979.99272194
987436.33492663
989045.195272378
990798.302152184
992682.597309401
994679.808671877
996766.44131071
998891.969086776
1000941.05295824
1002826.87933778
1004541.62444456
1006089.4676244
1007479.22371407
1008723.03410764
1009834.29067822
1010826.5013625
1011712.56495374
1012504.39554288
1013212.76854611
1013847.29262974
1014416.49498037
1014927.76644387
1015387.98509653
1015802.02874084
1016177.06400964
1016513.0874014
1016821.93292875
1017094.7115282
1017350.67850142
1017574.48756994
1017784.65329162
973634.005509028
973692.632585521
973927.783468309
974296.412323577
974819.911822783
975491.275904315
976320.497680409
977310.57091043
978467.568070399
979795.437116213
981296.877282285
982971.674004515
984815.812311744
986820.174489228
988969.565417483
991242.139356539
993584.78021404
995869.014483915
997991.42145137
999935.990473997
1001701.82425272
1003294.54218151
1004724.80260604
1006005.74380373
1007151.42602914
1008175.76344365
1009091.90787206
1009911.93951747
1010646.73898347
1011306.04895163
1011898.30786282
1012431.51066488
1012911.1503187
1013345.65496102
1013735.01421341
1014092.51092745
1014409.02931684
1014704.77593141
1014964.75124924
1015207.64868815
966881.59523944
966933.931643075
967157.690148404
967511.985249474
968019.645994172
968674.578766507
969488.918510504
970467.902931633
971620.677208693
972954.860338239
974477.548102809
976193.546984466
978104.316042016
980206.335711959
982489.566554855
984936.159098045
987492.850018469
990019.588782022
992394.749448766
994591.639027764
996601.991293852
998426.141818205
1000071.61875052
1001550.15921217
1002875.66728701
1004062.70365348
1005125.52416642
1006077.52953741
1006930.9690862
1007696.95034947
1008385.10101135
1009004.71985632
1009562.02823743
1010066.89194753
1010519.4047179
1010934.39838992
1011302.6641724
1011645.43497574
1011948.10787952
1012229.70099408
959570.166536119
959614.320518725
959821.345706931
960153.457287641
960634.549699129
961259.39166531
962042.056217198
962989.8947171
964115.033323528
965428.812733132
966942.985965829
968667.972640962
970611.749528652
972778.01467151
975164.165317899
977759.238269485
980513.375726526
983278.443175236
985914.242018126
988381.075600858
990660.784926416
992745.762417975
994638.040138581
996346.111078016
997882.437659631
999261.434722668
1000498.04964219
1001606.85649885
1002601.48732205
1003494.53570064
1004296.95971991
1005019.56610533
1005669.44725593
1006258.10145978
1006785.87678896
1007269.27179541
1007699.14571507
1008097.85566806
1008451.26576678
1008778.87771714
951691.727137041
951725.786129131
951910.502809887
952212.185052337
952655.316324985
953235.412719523
953968.15116368
954862.706529911
955933.876182425
957196.498982409
958666.911849619
960361.361955823
962295.006161034
964480.069694267
966923.556712578
969624.530990351
972541.084611833
975522.885570076
978412.86833277
981156.864235839
983724.590040623
986097.538052272
988269.171355475
990242.022308305
992024.974510594
993630.79262284
995074.17567889
996370.375386331
997534.214466402
998579.792503361
999519.502420969
1000365.86306744
1001127.01002777
1001816.28913564
1002434.50139756
1002999.95334687
1003503.77102327
1003969.5621335
1004383.75604094
1004766.51837429
943244.149633874
943266.259254494
943423.060538281
943685.970202859
944079.487821787
944599.703975453
945263.443972614
946081.260358887
947070.088247776
948247.739334143
949634.662537732
951252.645187136
953124.095660233
955270.446225193
957709.928057796
960454.497979167
963475.257269423
966628.058276822
969743.560026432
972753.40402735
975614.146577796
978293.833668427
980773.957301663
983047.54279035
985116.694001854
986989.955930497
988679.926263242
990201.347465195
991569.572645032
992799.948147901
993906.265550618
994902.903906691
995799.225727764
996610.654090189
997338.699550095
998003.649276905
998597.147187136
999144.216083064
999631.987535186
1000081.50427726
934231.487554517
934239.939706152
934363.420244974
934579.459978592
934911.920444719
935357.250335431
935932.869723288
936650.131261911
937527.373373105
938584.563888878
939845.37692648
941336.281237312
943086.256814467
945125.69224404
947484.620615904
950189.767232359
953229.923259362
956477.463946677
959758.667604265
962993.871465323
966127.801258116
969114.154350915
971919.716066742
974524.217003904
976918.865293707
979104.13679005
981087.320761045
982880.249338464
984497.185879421
985953.788734887
987264.795925131
988446.36561019
989509.198046464
990470.999623796
991334.305156933
992121.594083313
992825.35201153
993472.235514001
994050.271831119
994581.643979228
924664.056281888
924657.38564913
924742.599690108
924904.291204104
925164.968398679
925521.199077721
925990.382703418
926584.006051194
927320.927785264
928222.218139238
929313.521430929
930624.573839916
932189.441211988
934046.09718694
936235.485755992
938799.231028564
941746.90720109
944978.350166861
948326.221764618
951705.347082802
955053.309194447
958311.734726151
961432.324839464
964378.958299515
967127.910250016
969666.872352778
971993.147755399
974111.542350914
976031.952268316
977768.010386506
979333.904965252
980746.78500558
982018.422115631
983168.814669667
984201.829157299
985142.372986358
985984.192925107
986755.879020286
987446.635310269
988080.126910812
914558.237584163
914535.332147015
914578.076733129
914678.950445177
914858.354580172
915112.740764313
915458.857564748
915907.630289859
916477.483758354
917189.395095456
918069.467844888
919148.853858137
920464.5072816
922059.506025792
923983.163995253
926289.849345869
929010.223677101
932081.077167316
935353.50411059
938744.677375421
942193.084303489
945634.802507539
949010.337553225
952268.703055922
955369.513003193
958283.835267407
960993.858317272
963491.784905563
965777.810792421
967858.954703719
969745.267677085
971452.349958698
972991.534363907
974384.287724112
975635.731597864
976773.278323736
977792.413142384
978724.069637592
979559.055065564
980322.991915516
903935.955621443
903896.205806599
903893.347076578
903928.342278701
904018.721619276
904160.622138647
904369.550544357
904655.21327348
905034.669115078
905527.5882093
906158.930271138
906959.182855556
907965.529599811
909222.824507176
910784.746768079
912713.917054625
915058.896662936
917799.332268795
920815.573478126
924034.85840903
927406.178004816
930870.142256636
934364.96721143
937831.422926909
941216.053766817
944473.660336318
947568.764544757
950476.203372755
953180.362056611
955675.03726696
957959.801269709
960043.09060846
961931.416435816
963644.405054908
965186.582279225
966586.785270481
967842.206765557
968986.455147441
970012.560276584
970948.855994574
892823.724749916
892767.293624451
892717.195035393
892683.079106012
892678.881665298
892700.31237876
892761.144278828
892869.314815777
893039.701475354
893289.566220692
893641.216502286
894122.431556578
894767.871073729
895620.478705106
896733.422170203
898171.34315296
899994.252501009
902225.60211849
904782.125845448
907605.836126909
910663.829265335
913911.538933929
917296.556747957
920763.151175964
924255.208686591
927719.116044751
931106.251141832
934375.043997154
937491.746238017
940431.91261432
943177.832343271
945722.846576573
948060.731614276
950201.536691981
952142.853746573
953909.640716842
955497.400963473
956940.54699006
958233.961380373
959409.654550726
881251.058084167
881179.555967996
881082.776219778
880978.632561258
880876.931075993
880773.01264392
880678.587579115
880599.442062022
880547.655663394
880537.206467584
880586.506435363
880718.877620738
880964.003740051
881359.478241781
881953.10109568
882804.755697003
883977.438238059
885534.433841734
887431.231039006
889624.538753793
892101.662256707
894838.423815537
897800.636535811
900947.72688516
904234.476920841
907612.992478717
911034.781767168
914452.955071081
917823.579492131
921108.159252716
924272.244856955
927290.892294255
930139.39948772
932809.594545654
935282.562691038
937568.1326862
939648.979027498
941549.486982304
943255.998840944
944796.168902457
869243.535171203
869161.720296027
869021.901649062
868849.473078749
868650.280248001
868419.711882877
868167.332591146
867896.621921188
867616.518947372
867337.155446733
867072.205593275
866839.28785841
866661.289309146
866567.80317733
866597.378086661
866799.349093154
867231.125482503
867988.902918889
869065.429923599
870428.033055146
872080.112330405
874015.64517482
876219.271016586
878669.465758587
881339.345155566
884197.611305785
887209.710464812
890339.271942041
893548.971988492
896802.664161598
900064.318829584
903303.104830438
906485.94293884
909592.019010991
912589.769282784
915472.03736219
918206.128384229
920798.210304509
923215.940026346
925470.066347986
856629.745900899
856576.220789959
856428.377995789
856217.597222149
855947.882634395
855615.842691191
855229.257493973
854789.568981569
854302.740650827
853775.047711587
853215.298695103
852635.067637617
852049.812289236
851480.046879284
850953.371108974
850506.511038466
850184.792377326
850105.179276216
850293.593549818
850724.749567478
851412.383019655
852361.261486526
853568.23846122
855025.309952202
856719.922362473
858635.479214117
860752.052882408
863047.386563374
865497.388985715
868077.923527062
870763.796762936
873533.383356559
876362.318219157
879236.533760702
882132.420320134
885048.716180103
887961.017347071
890884.134039285
893794.144339319
896648.811863416
843237.995307704
843251.335624582
843133.856076291
842921.797641282
842617.720456844
842219.986202643
841735.019215447
841162.702533409
840506.46875715
839769.187496487
838955.266970436
838070.704767601
837123.978090106
836126.90033225
835096.164469335
834056.075591477
833040.525581935
832177.888965757
831521.110347561
831052.339666354
830790.980407679
830747.501651005
830925.558998224
831324.729517884
831940.517156994
832764.620248061
833785.345578982
834988.220178836
836356.138159923
837870.501207995
839510.160258169
841254.570145452
843078.871007212
844963.099932248
846877.45483785
848805.685016332
850710.094639721
852581.042214901
854382.61610901
855568.77742195
829049.603982916
829132.616307911