/*--------------------------------*- C++ -*----------------------------------*\
| =========                 |                                                 |
| \\      /  F ield         | OpenFOAM: The Open Source CFD Toolbox           |
|  \\    /   O peration     | Version:  2112                                  |
|   \\  /    A nd           | Website:  www.openfoam.com                      |
|    \\/     M anipulation  |                                                 |
\*---------------------------------------------------------------------------*/
FoamFile
{
    version     2.0;
    format      ascii;
    arch        "LSB;label=64;scalar=64";
    class       surfaceScalarField;
    location    "0.01";
    object      phi.gas;
}
// * * * * * * * * * * * * * * * * * * * * * * * * * * * * * * * * * * * * * //

dimensions      [0 3 -1 0 0 0 0];

oriented        oriented;

internalField   nonuniform List<scalar> 
10309
(
-1.09631217026903e-08
4.18816510270087e-06
-4.47060290176561e-08
1.25293714190709e-05
-9.96092871938647e-08
2.07302897522812e-05
-1.73475935824387e-07
2.87002921023321e-05
-2.63249661033227e-07
3.63561083491801e-05
-3.65375496996874e-07
4.36264070083536e-05
-4.75971085161577e-07
5.04528794699565e-05
-5.91026869941768e-07
5.67915003691943e-05
-7.06583285492041e-07
6.26129906543902e-05
-8.18881111774832e-07
6.79026794959522e-05
-9.2447239833795e-07
7.26598526154152e-05
-1.02028944654381e-06
7.68966998281276e-05
-1.10366886055884e-06
8.06370222069577e-05
-1.17232875660172e-06
8.39148344046339e-05
-1.2243125261934e-06
8.6773033922514e-05
-1.25864426982697e-06
8.9263575146374e-05
-1.27554136195456e-06
8.95832336430514e-05
-1.27409868540169e-06
8.41359557918416e-05
-1.25641221194535e-06
7.87452054384847e-05
-1.22490399389158e-06
7.35242832790265e-05
-1.18187395425085e-06
6.85386280337725e-05
-1.12938575052623e-06
6.38219095226327e-05
-1.06928538029017e-06
5.93871320099968e-05
-1.00323546732207e-06
5.52342147806283e-05
-9.32743760036878e-07
5.13551327896298e-05
-8.59182109483542e-07
4.77373546938038e-05
-7.83796962529227e-07
4.43661003063897e-05
-7.0771400588752e-07
4.12257862554585e-05
-6.31939978843595e-07
3.83009187998413e-05
-5.57364322767169e-07
3.55766146160813e-05
-4.84762481638662e-07
3.30388751469606e-05
-4.14801548603616e-07
3.06747012854575e-05
-3.48047848735231e-07
2.84721080081586e-05
-2.84975219404303e-07
2.64200796389386e-05
-2.25972374951219e-07
2.45084932548309e-05
-1.71347871168985e-07
2.27280285807354e-05
-1.21331736023482e-07
2.10700763076863e-05
-7.60736364888991e-08
1.9526652248771e-05
-3.56383549943259e-08
1.80903216074544e-05
1.67541350309496e-05
-2.36421582602178e-08
4.21398489005484e-06
-9.60234582132446e-08
1.26082281392113e-05
-2.14169746844716e-07
2.08589236536294e-05
-3.74840072949984e-07
2.88750116464361e-05
-5.73042932373152e-07
3.65713264868821e-05
-8.02956041919524e-07
4.38756019079913e-05
-1.05803828681462e-06
5.07287463805938e-05
-1.33129530525412e-06
5.70862579815553e-05
-1.61549345914831e-06
6.29186327689272e-05
-1.90333865547561e-06
6.82111861941959e-05
-2.18760240534501e-06
7.29633417380075e-05
-2.46118427912525e-06
7.71875071999266e-05
-2.71710603283487e-06
8.09077059652637e-05
-2.94844050788113e-06
8.41581071987051e-05
-3.14825606502237e-06
8.69817046281943e-05
-3.31096293825124e-06
8.94318868395661e-05
-3.42951408458741e-06
8.97040456735015e-05
-3.49075610884538e-06
8.41964588862548e-05
-3.5007874870159e-06
7.87522125567875e-05
-3.46488800593442e-06
7.34836733850462e-05
-3.38843738943051e-06
6.84562692152543e-05
-3.27684278521125e-06
6.37035988918679e-05
-3.13544747708662e-06
5.92385192909082e-05
-2.96946530831142e-06
5.50607512676233e-05
-2.78392138790864e-06
5.11620250637504e-05
-2.5835930753102e-06
4.7529516713334e-05
-2.37295189096767e-06
4.41481045338141e-05
-2.15610972860789e-06
4.10018173854571e-05
-1.93677369738807e-06
3.80747346652714e-05
-1.71821378077595e-06
3.53515187092224e-05
-1.50324657229092e-06
3.28177042416479e-05
-1.29423692371853e-06
3.04598301866635e-05
-1.09311772133952e-06
2.8265471800467e-05
-9.01426452358014e-07
2.6223212220452e-05
-7.20355906493752e-07
2.43225795998669e-05
-5.50815349068532e-07
2.25539671452982e-05
-3.93497803142027e-07
2.09085472771393e-05
-2.4894871108695e-07
1.93781869479248e-05
-1.17632309762215e-07
1.79553694450476e-05
1.66331322289815e-05
-3.66065009293713e-08
4.24989350771873e-06
-1.45763145347593e-07
1.27153355206764e-05
-3.24078248910307e-07
2.10339325996986e-05
-5.66946937911109e-07
2.9113481117671e-05
-8.67510272552294e-07
3.68666078328092e-05
-1.21772195533926e-06
4.42198979978776e-05
-1.60845000777679e-06
5.11131976739335e-05
-2.02981965052406e-06
5.75012708538785e-05
-2.47147140989047e-06
6.33541236022435e-05
-2.92277759258591e-06
6.86567855079874e-05
-3.37298893473822e-06
7.34085307151148e-05
-3.81129845458392e-06
7.76216739558391e-05
-4.2268132253743e-06
8.13201123276403e-05
-4.60844888443153e-06
8.45377806286585e-05
-4.94496599157455e-06
8.73174736650235e-05
-5.2264647938134e-06
8.97138742808699e-05
-5.43847912504346e-06
8.99177231352295e-05
-5.55943766860518e-06
8.43199571700312e-05
-5.59711650798502e-06
7.87930351125475e-05
-5.55960324496567e-06
7.34496844951825e-05
-5.45528571123163e-06
6.83556821179499e-05
-5.29267525244854e-06
6.3544792408026e-05
-5.08028551758906e-06
5.90299094556158e-05
-4.8264995708483e-06
5.48106516794313e-05
-4.53944318650077e-06
5.08785142070778e-05
-4.22686741413326e-06
4.72203154617395e-05
-3.8960416881586e-06
4.38204650859164e-05
-3.55365944083976e-06
4.06624255060502e-05
-3.20575871847788e-06
3.77296276230904e-05
-2.85766041582099e-06
3.50060214181945e-05
-2.5139263765621e-06
3.24763857543034e-05
-2.17833874362349e-06
3.0126481835793e-05
-1.85390067102877e-06
2.79431070245405e-05
-1.54285704218954e-06
2.59140866516169e-05
-1.24673247370007e-06
2.40282286367112e-05
-9.66382907266452e-07
2.22752572645996e-05
-7.02056588911391e-07
2.06457368430834e-05
-4.53459861737465e-07
1.91309919112872e-05
-2.1982485984747e-07
1.77230309951054e-05
1.64145073185018e-05
-5.53154352982812e-08
4.30473384875301e-06
-2.20895022263998e-07
1.28795279190471e-05
-4.92672244727351e-07
2.13034994626523e-05
-8.64834346567835e-07
2.94827553488472e-05
-1.3283079359567e-06
3.73266920732834e-05
-1.87216043808379e-06
4.4760062558316e-05
-2.48362013715854e-06
5.17208854067832e-05
-3.14856744338278e-06
5.8162576514709e-05
-3.85186975865058e-06
6.40541173871752e-05
-4.57767428648177e-06
6.93797965033373e-05
-5.30960375591469e-06
7.41383354638727e-05
-6.03083624474483e-06
7.83415714198672e-05
-6.72405498063446e-06
8.20128709799856e-05
-7.37131636950185e-06
8.51855056051274e-05
-7.95422851029487e-06
8.79017853159942e-05
-8.45571416724076e-06
9.02176687557901e-05
-8.84906054548521e-06
9.03141578956741e-05
-9.0960394504508e-06
8.45704477952051e-05
-9.20662535875532e-06
7.89073499654299e-05
-9.19222888123204e-06
7.34390733902753e-05
-9.06528887014886e-06
6.82324666852538e-05
-8.83878651436382e-06
6.33218728594935e-05
-8.52594615992353e-06
5.87204581473973e-05
-8.13995544778579e-06
5.44278266240725e-05
-7.69371778918588e-06
5.04352058954124e-05
-7.19963767627028e-06
4.67289275325803e-05
-6.66943910626537e-06
4.32927290403489e-05
-6.11401578342159e-06
4.01092480036784e-05
-5.54331073060382e-06
3.7160967858345e-05
-4.96622298725257e-06
3.44307961308885e-05
-4.3905399725999e-06
3.19024003488222e-05
-3.82289534522439e-06
2.95603873540407e-05
-3.26875326484982e-06
2.73903838086609e-05
-2.7324204657178e-06
2.53790560486077e-05
-2.21708731877043e-06
2.35140938745882e-05
-1.72489818195496e-06
2.17841737590771e-05
-1.25704985013848e-06
2.01789107114314e-05
-8.13913973738632e-07
1.8688802529633e-05
-3.95175826631051e-07
1.73051699496776e-05
1.60201443773092e-05
-6.96670975138737e-08
4.37481868022377e-06
-2.77904299637103e-07
1.30890330818832e-05
-6.20336506258539e-07
2.16480433387912e-05
-1.08970843458761e-06
2.99550642751267e-05
-1.67510883631216e-06
3.79158059821043e-05
-2.36327168291318e-06
4.54526483423482e-05
-3.13859513797859e-06
5.25012543093183e-05
-3.98374612768726e-06
5.90132931650706e-05
-4.88004571244953e-06
6.495638891198e-05
-5.80782441873367e-06
7.0313832078948e-05
-6.74665997984444e-06
7.50835880723877e-05
-7.67547845105048e-06
7.92768424573063e-05
-8.57250955225324e-06
8.29162682838372e-05
-9.41519996314336e-06
8.60343584370048e-05
-1.01805992761564e-05
8.86730304896815e-05
-1.08469359704266e-05
9.08894222075164e-05
-1.13788715150116e-05
9.08508808306886e-05
-1.1726950094236e-05
8.49224122881892e-05
-1.19025008831525e-05
7.90859750319675e-05
-1.19190493095656e-05
7.3457975040784e-05
-1.17914772391317e-05
6.81066168484641e-05
-1.15354173197766e-05
6.3066990630694e-05
-1.11668200652206e-05
5.8352575146206e-05
-1.07015702842768e-05
5.39629024098254e-05
-1.01551678687522e-05
4.98888082704534e-05
-9.54247071197372e-06
4.61159753421222e-05
-8.87750164655413e-06
4.26272992391921e-05
-8.17331702218922e-06
3.94044445213235e-05
-7.44192991776842e-06
3.64288451897619e-05
-6.69427789533011e-06
3.36823275122184e-05
-5.94022403385499e-06
3.11474792238573e-05
-5.1885803200961e-06
2.88078511901032e-05
-4.44714366162066e-06
2.66480505188721e-05
-3.72273616911917e-06
2.4653764666371e-05
-3.02124238322174e-06
2.28117421578875e-05
-2.34763689138357e-06
2.1109746173899e-05
-1.70599754610953e-06
1.95364920095269e-05
-1.09950202548665e-06
1.80815746585225e-05
-5.30404971302095e-07
1.67353895128428e-05
1.54891050069669e-05
-8.48580839478655e-08
4.46050044566049e-06
-3.38654665881942e-07
1.3345303939089e-05
-7.56464724573075e-07
2.20699247847514e-05
-1.32960427788862e-06
3.05337778962922e-05
-2.04520752172219e-06
3.86383378369418e-05
-2.88748275257984e-06
4.63030240919717e-05
-3.83778567963422e-06
5.34606161814581e-05
-4.87534117964379e-06
6.00606334463203e-05
-5.97768953409435e-06
6.60690058701776e-05
-7.12112389264154e-06
7.14677769479711e-05
-8.28098889676722e-06
7.62539717505274e-05
-9.43182595160775e-06
8.0437987005258e-05
-1.05473688311994e-05
8.40417065854032e-05
-1.16005615247571e-05
8.70968538600729e-05
-1.25641232684867e-05
8.96451413417408e-05
-1.34116605456664e-05
9.17446074444435e-05
-1.40986852910917e-05
9.15443991045267e-05
-1.45638855233788e-05
8.53926444910754e-05
-1.48205494303143e-05
7.93464117153188e-05
-1.48844556133273e-05
7.35245794616631e-05
-1.47729310474411e-05
6.79968833259869e-05
-1.45041744920174e-05
6.27992668321361e-05
-1.40967070607246e-05
5.79455130932268e-05
-1.3568888769959e-05
5.34349761864053e-05
-1.29385152484033e-05
4.92579122038397e-05
-1.22224981406626e-05
4.53991059775001e-05
-1.14366382838958e-05
4.18403300826894e-05
-1.05954930631022e-05
3.85619949006253e-05
-9.7123305868486e-06
3.55442358391303e-05
-8.7991563661265e-06
3.27676085407682e-05
-7.86679466747795e-06
3.02135126225963e-05
-6.92500684474928e-06
2.78644301742824e-05
-5.98263233553263e-06
2.57040413918936e-05
-5.04774430986111e-06
2.3717263200253e-05
-4.1278191580935e-06
2.18902436892554e-05
-3.22991924827391e-06
2.02103288583529e-05
-2.36088245315036e-06
1.8666006758022e-05
-1.52758741614153e-06
1.72469108144247e-05
-7.37660399080121e-07
1.59441822572851e-05
1.47502599655939e-05
-1.0124578153413e-07
4.56269216146629e-06
-4.04037956212205e-07
1.36509377064945e-05
-9.02720315627629e-07
2.25732829949674e-05
-1.58709594736983e-06
3.12245559389069e-05
-2.44217472227336e-06
3.95013800718949e-05
-3.44940585268245e-06
4.73195772088406e-05
-4.58683687004521e-06
5.46084919044316e-05
-5.82996525997692e-06
6.13150735609846e-05
-7.1522652472071e-06
6.74032193501208e-05
-8.52573566474752e-06
7.28534981715033e-05
-9.92128727525111e-06
7.76618563959149e-05
-1.13089681000029e-05
8.18378438511939e-05
-1.2658047164863e-05
8.54025852648099e-05
-1.39371837699369e-05
8.83872157562064e-05
-1.51150737370566e-05
9.08335052544366e-05
-1.61606298364987e-05
9.27997218447413e-05
-1.70195761402394e-05
9.24116771539366e-05
-1.76190553352435e-05
8.59988067108019e-05
-1.79749328321558e-05
7.97075396042344e-05
-1.81055426190463e-05
7.36592030426836e-05
-1.80308856712823e-05
6.79251824359614e-05
-1.77718933628084e-05
6.25423333834884e-05
-1.73498019453756e-05
5.75247256267638e-05
-1.67855871693372e-05
5.28714353985507e-05
-1.6099468482775e-05
4.85719463798001e-05
-1.53104900957983e-05
4.46098534317763e-05
-1.44361957412387e-05
4.09654153503713e-05
-1.34924055346793e-05
3.76173070387013e-05
-1.24930919317812e-05
3.45438058033378e-05
-1.14503406732331e-05
3.17235714968335e-05
-1.03743747766124e-05
2.91361332207516e-05
-9.27361558864747e-06
2.67621647748485e-05
-8.15475324606576e-06
2.45836095720563e-05
-7.02279998551383e-06
2.25837019751636e-05
-5.88111128669772e-06
2.07469294445356e-05
-4.73137176376101e-06
1.90589639443259e-05
-3.57340648523705e-06
1.75064313911672e-05
-2.40412863129791e-06
1.60760508572754e-05
-1.21540021689805e-06
1.47539098416782e-05
1.35333699498266e-05
-1.04533763108467e-07
4.6683038352836e-06
-4.17248121956171e-07
1.39668907906305e-05
-9.32671311541499e-07
2.30940388571291e-05
-1.64069789494353e-06
3.19398900879508e-05
-2.52630222737611e-06
4.03960835225924e-05
-3.57068733247589e-06
4.83746281997894e-05
-4.75138466922929e-06
5.5801159835397e-05
-6.04312328775794e-06
6.2619803600944e-05
-7.41832617749208e-06
6.87921401460431e-05
-8.8476858966499e-06
7.42970091301621e-05
-1.03005779663685e-05
7.91290505840152e-05
-1.17453365471651e-05
8.32967908458649e-05
-1.3149414550173e-05
8.68204956947148e-05
-1.44796416321659e-05
8.9730701321031e-05
-1.57027420252372e-05
9.20690968392082e-05
-1.67846234706707e-05
9.38931482229316e-05
-1.76667965767103e-05
9.33040795861951e-05
-1.82754983196999e-05
8.66158811026474e-05
-1.86271609799446e-05
8.00659532651387e-05
-1.87407172849277e-05
7.37781012835561e-05
-1.86370270023784e-05
6.78256203300586e-05
-1.83380684356417e-05
6.22464659571019e-05
-1.78663392717657e-05
5.70552084409854e-05
-1.72442928929359e-05
5.22508615218801e-05
-1.64938185035905e-05
4.78223275080922e-05
-1.56357671265568e-05
4.37521470398634e-05
-1.4689550061581e-05
4.00191243919202e-05
-1.36728346451344e-05
3.6600177009099e-05
-1.26013543012742e-05
3.34716361393976e-05
-1.14888375689634e-05
3.06101459748346e-05
-1.0347048800851e-05
2.79932620146496e-05
-9.18592443930598e-06
2.55998220437147e-05
-8.01378289884994e-06
2.34101445697125e-05
-6.83758096175936e-06
2.14060965492844e-05
-5.66320089879924e-06
1.95710861075135e-05
-4.49583137387106e-06
1.78900876646148e-05
-3.34051750343056e-06
1.63495807421989e-05
-2.20194228069037e-06
1.49359198620613e-05
-1.08166490008101e-06
1.36320612572895e-05
1.24501234782901e-05
-9.2613654862246e-08
4.7622162409636e-06
-3.69916491773275e-07
1.42480920664581e-05
-8.27616562555132e-07
2.35581539812969e-05
-1.45745131238116e-06
3.25785096799592e-05
-2.24676558855134e-06
4.11963291000379e-05
-3.17947564273125e-06
4.93201428422971e-05
-4.23595509619114e-06
5.68719998794032e-05
-5.39378526803206e-06
6.37932081366916e-05
-6.62809055089637e-06
7.00428802039832e-05
-7.91204296042614e-06
7.55979066688645e-05
-9.21722860221297e-06
8.04513566292178e-05
-1.05139367138425e-05
8.4610483452844e-05
-1.1771369842467e-05
8.80944957436309e-05
-1.29579137144416e-05
9.09331452190022e-05
-1.40414374319843e-05
9.31676382466169e-05
-1.49882765985083e-05
9.48539304737586e-05
-1.57438032155709e-05
9.40720489431174e-05
-1.62443618961044e-05
8.71267213674834e-05
-1.65045979088294e-05
8.033458847819e-05
-1.65416661031384e-05
7.38219376998701e-05
-1.63748259663804e-05
6.76641469134552e-05
-1.60245876754867e-05
6.19003992597083e-05
-1.55122777347177e-05
5.65460585374364e-05
-1.48596241866513e-05
5.16005185091455e-05
-1.40883687024167e-05
4.70526751452964e-05
-1.3219875441089e-05
4.28846731940138e-05
-1.22747532803539e-05
3.90745448080725e-05
-1.12725179972216e-05
3.55980989876645e-05
-1.02313244494333e-05
3.24302921979145e-05
-9.16779211893602e-06
2.95462208738572e-05
-8.09693554697889e-06
2.69218246752947e-05
-7.03219874808531e-06
2.4534361425303e-05
-5.9855800516279e-06
2.23626959306394e-05
-4.96781126520464e-06
2.03874219419966e-05
-3.9885497632702e-06
1.85908676005898e-05
-3.05675088805369e-06
1.69573006303306e-05
-2.18156992927273e-06
1.54733972807707e-05
-1.37005874972308e-06
1.41234084571278e-05
-6.10487871513852e-07
1.28715024082339e-05
1.18386532844962e-05
-7.97483017086198e-08
4.84354701693606e-06
-3.18546765497914e-07
1.44916343467051e-05
-7.13035074760236e-07
2.39604404951549e-05
-1.25668698472542e-06
3.31328297783542e-05
-1.93922693784066e-06
4.18921320403394e-05
-2.74743148796171e-06
5.01438705684581e-05
-3.66479440803011e-06
5.78067595118065e-05
-4.67216173365514e-06
6.48194305415858e-05
-5.74790600351568e-06
7.11385109410357e-05
-6.86837372221227e-06
7.67388713194005e-05
-8.00822189716596e-06
8.16119117255751e-05
-9.14074870266425e-06
8.57635583695705e-05
-1.0238179780334e-05
8.92119862700349e-05
-1.12719644947339e-05
9.19862136323452e-05
-1.22129327715441e-05
9.41268729581667e-05
-1.30303342408754e-05
9.56883755293249e-05
-1.36764707990181e-05
9.47335156585791e-05
-1.4098760344237e-05
8.75618141930743e-05
-1.4310359578841e-05
8.05567965378918e-05
-1.43264796125687e-05
7.38467715576988e-05
-1.41641044002184e-05
6.75088613118802e-05
-1.38411025899565e-05
6.1583103822376e-05
-1.3375996228151e-05
5.60854877496651e-05
-1.27877541253174e-05
5.10158275078778e-05
-1.20956321409544e-05
4.63632826384599e-05
-1.13189721419116e-05
4.21100628964772e-05
-1.04769395972226e-05
3.82340052176934e-05
-9.58819855973296e-06
3.4710400256749e-05
-8.67054326054499e-06
3.15133193918676e-05
-7.74051549963604e-06
2.86165928782049e-05
-6.81303929063199e-06
2.59945302696058e-05
-5.90110265118985e-06
2.36224424492549e-05
-5.01551182304598e-06
2.14770028484598e-05
-4.16470216168479e-06
1.95364260648654e-05
-3.35450646771535e-06
1.77804306245927e-05
-2.58820685668583e-06
1.61907271546095e-05
-1.8687690964529e-06
1.47536697642145e-05
-1.19697686742373e-06
1.34513264463088e-05
-5.16626303595171e-07
1.21908764372794e-05
1.13217778602862e-05
-6.5756794470162e-08
4.91121046347534e-06
-2.62301823079423e-07
1.46938863846616e-05
-5.86781289387698e-07
2.42942896998927e-05
-1.03414735973314e-06
3.35929986020394e-05
-1.59637874820597e-06
4.24702633302938e-05
-2.26314846711078e-06
5.08292321596223e-05
-3.02126091999249e-06
5.8585690350086e-05
-3.85517850874541e-06
6.56758957512301e-05
-4.74702705557978e-06
7.20541270903366e-05
-5.67698923738659e-06
7.76933215937832e-05
-6.62361139749403e-06
8.25832701564062e-05
-7.56418353157275e-06
8.67286836591562e-05
-8.47510832241068e-06
9.01468999938453e-05
-9.33223624546081e-06
9.28664401357083e-05
-1.01109517485272e-05
9.49275291674847e-05
-1.07855385773889e-05
9.63835285259097e-05
-1.13181527194544e-05
9.52847637684224e-05
-1.16692173510914e-05
8.7928595211644e-05
-1.18506255665208e-05
8.07513941351229e-05
-1.18756731617782e-05
7.38828327366387e-05
-1.17586410866733e-05
6.74009811897442e-05
-1.15137961336418e-05
6.13458251123065e-05
-1.11552923960683e-05
5.57332046647853e-05
-1.06971112417861e-05
5.0562729530476e-05
-1.01531319606622e-05
4.58234292200229e-05
-9.53719522971151e-06
4.14974506686595e-05
-8.86311263160901e-06
3.7562580719119e-05
-8.14458807968122e-06
3.39939839919343e-05
-7.39504568651306e-06
3.07654358278397e-05
-6.62737992316118e-06
2.78502223407517e-05
-5.85365912205128e-06
2.52218139123881e-05
-5.08482528672504e-06
2.28543833556883e-05
-4.3304529075365e-06
2.07232260450452e-05
-3.59859312892474e-06
1.88050239130782e-05
-2.89543865451957e-06
1.70776290437248e-05
-2.22489143136421e-06
1.55204540754445e-05
-1.59307325554782e-06
1.41220651831169e-05
-1.01546414317833e-06
1.28738841376029e-05
-4.00215347543976e-07
1.15757592063485e-05
1.09217210198598e-05
-5.11249515784023e-08
4.96460803044967e-06
-2.03037870729985e-07
1.48525897067807e-05
-4.52813275663737e-07
2.45551967763517e-05
-7.96408164741781e-07
3.39517824149082e-05
-1.22769923532256e-06
4.29203939228159e-05
-1.73904503671591e-06
5.13625819467913e-05
-2.32050535357921e-06
5.91917642656548e-05
-2.96026642316849e-06
6.63422905210664e-05
-3.6444703250715e-06
7.27663838257514e-05
-4.35754851113694e-06
7.84352853714287e-05
-5.0824850855915e-06
8.33373739904939e-05
-5.80123365811425e-06
8.74763820484382e-05
-6.49515551573209e-06
9.08691183478273e-05
-7.14539773948024e-06
9.35439586756957e-05
-7.73295065697719e-06
9.55410442440979e-05
-8.23841989577612e-06
9.69134193937949e-05
-8.6358825048931e-06
9.57044816766806e-05
-8.90126990811943e-06
8.82129009692185e-05
-9.04539662735794e-06
8.09115559605899e-05
-9.08010400403328e-06
7.39310999165755e-05
-9.01726773922681e-06
6.7349590690158e-05
-8.86768038578183e-06
6.1205882578857e-05
-8.6409980108165e-06
5.55146347219086e-05
-8.34570339177238e-06
5.02742441479633e-05
-7.98930747625128e-06
4.54727347730971e-05
-7.57862271991331e-06
4.10915265344728e-05
-7.12006777447186e-06
3.71079885665333e-05
-6.61995095204546e-06
3.34971550869228e-05
-6.0846990866976e-06
3.02329030005079e-05
-5.52101014958927e-06
2.72887750635818e-05
-4.93591712931775e-06
2.46385641238048e-05
-4.33675686638661e-06
2.22567358319993e-05
-3.73108059672739e-06
2.01187901617571e-05
-3.12660323869469e-06
1.82015639856293e-05
-2.53075550587373e-06
1.64826176442282e-05
-1.94861430209891e-06
1.49390034191942e-05
-1.38743575669225e-06
1.35614592560696e-05
-8.83460173041859e-07
1.23703839039949e-05
-3.08129208789145e-07
1.10008060885378e-05
1.06140015217141e-05
-3.5605749959239e-08
5.00290540565293e-06
-1.39741210344181e-07
1.49647500690602e-05
-3.08770139534188e-07
2.47373561533308e-05
-5.3903395027991e-07
3.41999299980959e-05
-8.25832912846912e-07
4.32293375126411e-05
-1.16386942701513e-06
5.17264415510007e-05
-1.54630251430197e-06
5.96030395273001e-05
-1.96505319709269e-06
6.67922064942065e-05
-2.41045624943607e-06
7.32445696122934e-05
-2.87150747996322e-06
7.89300522187356e-05
-3.33605423865253e-06
8.38359300104445e-05
-3.79121149325595e-06
8.79652680350957e-05
-4.22383039757035e-06
9.13346898081385e-05
-4.6209087305877e-06
9.39728031032396e-05
-4.96961548251813e-06
9.59200091020477e-05
-5.25732770795265e-06
9.72296466678992e-05
-5.4714640010718e-06
9.59446984731744e-05
-5.60710952159367e-06
8.83708332949767e-05
-5.67351404801733e-06
8.09969762600406e-05
-5.68164689955058e-06
7.39554504068962e-05
-5.64162003800993e-06
6.7323398996879e-05
-5.56169558757337e-06
6.11377673051628e-05
-5.4482748645033e-06
5.54112993620449e-05
-5.3058151220305e-06
5.01404003077876e-05
-5.1370282760965e-06
4.53113079774624e-05
-4.94317126164634e-06
4.09039532914161e-05
-4.72441296589639e-06
3.68945892842216e-05
-4.48022931101059e-06
3.32575342702981e-05
-4.20979517355266e-06
2.9966345410138e-05
-3.91234885023736e-06
2.69946136121237e-05
-3.58751243929438e-06
2.43165029847613e-05
-3.23554510688271e-06
2.19071058449178e-05
-2.85752239676505e-06
1.97427297620564e-05
-2.455669952441e-06
1.78013540961078e-05
-2.03385466470618e-06
1.60621739173862e-05
-1.59427366012197e-06
1.4500566401372e-05
-1.13635416213063e-06
1.31044943825534e-05
-7.26443061366655e-07
1.19612749102131e-05
-1.94579234843775e-07
1.04695587089687e-05
1.04200893882313e-05
-1.94304663014114e-08
5.0255143573617e-06
-7.34451248259924e-08
1.50282186272196e-05
-1.57080806746531e-07
2.48364286371627e-05
-2.66229706702522e-07
3.43300625365301e-05
-3.97015516201314e-07
4.33860586228022e-05
-5.45916348404075e-07
5.19055323550081e-05
-7.08857383164239e-07
5.97996428088455e-05
-8.81290540295376e-07
6.70009532901463e-05
-1.0577189860973e-06
7.34591350185665e-05
-1.2317975646135e-06
7.91432919325722e-05
-1.3964254556376e-06
8.4040001269624e-05
-1.54410306473812e-06
8.81520096628831e-05
-1.66737202085351e-06
9.14960781014678e-05
-1.7592401342731e-06
9.41013849413899e-05
-1.81317895411341e-06
9.60089020485091e-05
-1.82299156601825e-06
9.72724073030399e-05
-1.7901176817332e-06
9.59420032923062e-05
-1.73337810512912e-06
8.8339942584288e-05
-1.65812386833727e-06
8.09438498438127e-05
-1.57507086308233e-06
7.38913565765499e-05
-1.49284651766333e-06
6.72574474881993e-05
-1.41791095623696e-06
6.10768292222687e-05
-1.35462908900204e-06
5.53600855949524e-05
-1.30525752060392e-06
5.01014563467336e-05
-1.27012489353745e-06
4.52852027924338e-05
-1.24788200703187e-06
4.08895374765303e-05
-1.23580255676832e-06
3.6889302951847e-05
-1.2300984211844e-06
3.32577284773132e-05
-1.22622026280062e-06
2.99675878906704e-05
-1.21911922156353e-06
2.69919546684773e-05
-1.20345690770217e-06
2.43046888565292e-05
-1.17374929577774e-06
2.18807252967971e-05
-1.12437329144695e-06
1.96962227861962e-05
-1.04954584479517e-06
1.77289926137197e-05
-9.44533534069538e-07
1.59592725136788e-05
-8.05096118491839e-07
1.43629271209613e-05
-6.01031090668199e-07
1.29019520810965e-05
-4.11586034039009e-07
1.17731322524022e-05
-4.06708248658273e-08
1.00996313605996e-05
1.03804428963645e-05
-2.28123278517033e-09
5.03147749910229e-06
-3.41116580247389e-09
1.504024928489e-05
3.20989035464672e-09
2.48475174375443e-05
2.31720245422585e-08
3.43340385135217e-05
6.02084391127724e-08
4.33784410880227e-05
1.16786735210324e-07
5.18830019222127e-05
1.94559196598273e-07
5.97596181281154e-05
2.94876605484802e-07
6.69411283742717e-05
4.19171493398604e-07
7.33771328000379e-05
5.69156073528598e-07
7.90365048032534e-05
7.46815136778828e-07
8.39056277974952e-05
9.5418529004184e-07
8.79872981649814e-05
1.19300815212228e-06
9.12986880479645e-05
1.46433530937553e-06
9.38697885452054e-05
1.76856483333316e-06
9.57423470979507e-05
2.1062448652123e-06
9.69701130002336e-05
2.46132520989729e-06
9.56192350799587e-05
2.78659622160361e-06
8.80422575776006e-05
3.08232184172181e-06
8.06716956840746e-05
3.33867455808946e-06
7.36551886350645e-05
3.54895679271294e-06
6.70644996183339e-05
3.7087506160816e-06
6.09319719365357e-05
3.8157735838083e-06
5.52659796175148e-05
3.86964428605138e-06
5.0058797033972e-05
3.87165163395645e-06
4.52929608466498e-05
3.8244693412458e-06
4.09452536220683e-05
3.73185602771852e-06
3.69893958552867e-05
3.59834323770059e-06
3.339781355757e-05
3.4289213478466e-06
3.0142797108467e-05
3.22873176485872e-06
2.7197249009919e-05
3.0027693629601e-06
2.45351596945832e-05
2.75559394389448e-06
2.21318859871403e-05
2.49113218276055e-06
1.9964209172766e-05
2.2127840399141e-06
1.80104585778654e-05
1.92239322206344e-06
1.62524211162217e-05
1.61437255015462e-06
1.46733860294848e-05
1.32048965390244e-06
1.31979818948667e-05
9.65271545782578e-07
1.21302859191822e-05
6.53224840577464e-07
1.04132455420453e-05
1.10353808532315e-05
8.15789376497453e-08
4.95445807647596e-06
3.22442123896885e-07
1.48129673831288e-05
7.11738907568716e-07
2.44804209927091e-05
1.23315922656631e-06
3.3842805490344e-05
1.86593726867173e-06
4.2782983498044e-05
2.58626876551435e-06
5.12061241024549e-05
3.36900802446752e-06
5.90253507264265e-05
4.18916152896356e-06
6.61732984208142e-05
5.02334163812808e-06
7.25979566621272e-05
5.85079459470094e-06
7.82656104840522e-05
6.65404443725621e-06
8.31594509333419e-05
7.41904887327182e-06
8.72789579925845e-05
8.13497556175956e-06
9.06382324208114e-05
8.79376526681995e-06
9.32646421398211e-05
9.38975040458271e-06
9.51976942906767e-05
9.91996399769457e-06
9.64885920737347e-05
1.03643386050819e-05
9.52198034959335e-05
1.06751589919773e-05
8.77702339808304e-05
1.0873651015033e-05
8.05067414563156e-05
1.0967622398252e-05
7.35902838104879e-05
1.09635271181481e-05
6.70938645142847e-05
1.08669848100699e-05
6.10505615532548e-05
1.0683529840779e-05
5.54687451225079e-05
1.04188474084925e-05
5.03404607472894e-05
1.00788710343675e-05
4.56479301655358e-05
9.66978582668915e-06
4.13676283116898e-05
9.1979894754678e-06
3.7473016375743e-05
8.67002139433743e-06
3.39363399323015e-05
8.09247730562737e-06
3.07298011024744e-05
7.47192292369649e-06
2.78263060875691e-05
6.81481768415354e-06
2.51999299520607e-05
6.12743036988232e-06
2.28262023470613e-05
5.41570341793306e-06
2.06822161859233e-05
4.68552350577246e-06
1.8746344361154e-05
3.94414193078846e-06
1.69989992434423e-05
3.18636193224283e-06
1.54359116577706e-05
2.44228665965655e-06
1.3946377577295e-05
1.6860772911333e-06
1.28905344459112e-05
8.98074886962515e-07
1.12047223692169e-05
1.19373360945675e-05
7.28762308435559e-08
4.88685538240439e-06
2.88872765896458e-07
1.46127103838748e-05
6.37910620397753e-07
2.41571874100895e-05
1.10464815413576e-06
3.34113007802459e-05
1.66922162700548e-06
4.22621832349316e-05
2.30895656576891e-06
5.06176425703629e-05
2.99979765587193e-06
5.83920315927352e-05
3.7178661065317e-06
6.55177239934529e-05
4.4408339423986e-06
7.19411207704389e-05
5.14897678585535e-06
7.76259227950973e-05
5.82583416028472e-06
8.25521250680402e-05
6.45839728601696e-06
8.67158663357847e-05
7.03689508573351e-06
9.01281523921992e-05
7.55431876840482e-06
9.2813753204863e-05
8.00589230189976e-06
9.48101171373882e-05
8.38913831800334e-06
9.61663312576434e-05
8.69033529244275e-06
9.49751321136737e-05
8.87894058579108e-06
8.76306414299346e-05
8.96993664472335e-06
8.04582651086936e-05
8.97229997140455e-06
7.36248787472125e-05
8.89337245855177e-06
6.7205000466025e-05
8.7392919458267e-06
6.12328006384608e-05
8.5159681037807e-06
5.57167740951267e-05
8.22935300396408e-06
5.06488317114143e-05
7.88554863982927e-06
4.60109656870905e-05
7.49083854934052e-06
4.17794017471077e-05
7.05167440074229e-06
3.79273759910434e-05
6.57463256363081e-06
3.44269616144914e-05
6.06635437721504e-06
3.12502559849602e-05
5.53347801167072e-06
2.83701353240467e-05
4.98257166923831e-06
2.57607170559699e-05
4.42007377391094e-06
2.33976376108541e-05
3.85215182156732e-06
2.1258241657918e-05
3.28448712863959e-06
1.9321372218536e-05
2.72537793131254e-06
1.75648108743411e-05
2.17027782904175e-06
1.59971295251624e-05
1.64745524395461e-06
1.44747540722554e-05
1.12959150626247e-06
1.34135727796804e-05
5.92641334088497e-07
1.17461676275684e-05
1.25348973436661e-05
6.66061729971678e-08
4.82629712295887e-06
2.64172488064426e-07
1.44332025268789e-05
5.83314644247548e-07
2.38676974708122e-05
1.00941459061196e-06
3.30257800310636e-05
1.52343243347614e-06
4.17987224998833e-05
2.10349123546582e-06
5.00969693078545e-05
2.72633486588469e-06
5.78360676939891e-05
3.36882514543221e-06
6.49481586588674e-05
4.00934511444025e-06
7.13780567428268e-05
4.62886968111986e-06
7.70868696091114e-05
5.21168873329973e-06