/*--------------------------------*- C++ -*----------------------------------*\
| =========                 |                                                 |
| \\      /  F ield         | OpenFOAM: The Open Source CFD Toolbox           |
|  \\    /   O peration     | Version:  2112                                  |
|   \\  /    A nd           | Website:  www.openfoam.com                      |
|    \\/     M anipulation  |                                                 |
\*---------------------------------------------------------------------------*/
FoamFile
{
    version     2.0;
    format      ascii;
    arch        "LSB;label=64;scalar=64";
    class       surfaceScalarField;
    location    "0.01";
    object      phi.particles;
}
// * * * * * * * * * * * * * * * * * * * * * * * * * * * * * * * * * * * * * //

dimensions      [0 3 -1 0 0 0 0];

oriented        oriented;

internalField   nonuniform List<scalar> 
10309
(
-9.24723943363484e-09
3.95097015372963e-06
-3.28309303868193e-08
1.18223880971068e-05
-7.21082141369687e-08
1.95763088571046e-05
-1.24665559378276e-07
2.7136564030577e-05
-1.88267132027139e-07
3.44337258562721e-05
-2.60171812591839e-07
4.14083164091022e-05
-3.37436812633251e-07
4.80118334370581e-05
-4.17050591851281e-07
5.42077271009306e-05
-4.96077279996332e-07
5.99717213017654e-05
-5.71771404311455e-07
6.52916260956458e-05
-6.416600823259e-07
7.01667387641718e-05
-7.03583593119833e-07
7.46069419752208e-05
-7.55444165367647e-07
7.8631605546539e-05
-7.95657557497691e-07
8.22655316305747e-05
-8.23647103192164e-07
8.55484585774096e-05
-8.39683573813283e-07
8.8526249125291e-05
-8.50618144026406e-07
8.93836235226435e-05
-8.59379908190243e-07
8.44287685994861e-05
-8.58996508142822e-07
7.93829146782353e-05
-8.46912279781588e-07
7.43906581349365e-05
-8.24817032735682e-07
6.95461612198928e-05
-7.94346961823324e-07
6.49064088759036e-05
-7.56992299180366e-07
6.05025632343995e-05
-7.14116900688444e-07
5.63483550505069e-05
-6.66973679023471e-07
5.24460507359631e-05
-6.16712721507665e-07
4.8790647599652e-05
-5.64384206378046e-07
4.53727814664336e-05
-5.10938459736904e-07
4.21807044360627e-05
-4.57225294900887e-07
3.92015972343165e-05
-4.03994340629762e-07
3.6422411075096e-05
-3.51897402217688e-07
3.38303819489539e-05
-3.01493109596795e-07
3.14133213614574e-05
-2.53253356224165e-07
2.91597585182352e-05
-2.07570489410947e-07
2.70589873613834e-05
-1.64763991065677e-07
2.51010558730573e-05
-1.25085515221797e-07
2.32767232955018e-05
-8.872156443825e-08
2.15774023104489e-05
-5.5793841155578e-08
1.9995096161958e-05
-2.63616581642693e-08
1.85223261985009e-05
1.71520962259625e-05
-1.98564262670185e-08
4.18160064987367e-06
-7.14464743211483e-08
1.25106605334563e-05
-1.5806808561961e-07
2.07036525619732e-05
-2.75608457716617e-07
2.86732661618799e-05
-4.20888607161242e-07
3.63384340717188e-05
-5.89691188336371e-07
4.36291555931602e-05
-7.77367680386101e-07
5.04871235823639e-05
-9.78932249325933e-07
5.68669200007358e-05
-1.18922167793575e-06
6.27364291392466e-05
-1.40301103498892e-06
6.80767533039615e-05
-1.61509139221885e-06
7.28817030987426e-05
-1.8203091137572e-06
7.71569714611357e-05
-2.01369727525283e-06
8.09191111449918e-05
-2.19014020476978e-06
8.41935350671375e-05
-2.34448281253201e-06
8.70166527931133e-05
-2.47321018564404e-06
8.94358275333549e-05
-2.57293025535867e-06
8.96424748076258e-05
-2.63874353078746e-06
8.40467398621729e-05
-2.66757857501476e-06
7.84869077909819e-05
-2.65804849248134e-06
7.30963900729891e-05
-2.61459676546864e-06
6.79538854292966e-05
-2.5411174477305e-06
6.31013359816166e-05
-2.44175715125064e-06
5.85557673606441e-05
-2.32072699344915e-06
5.43180893426763e-05
-2.18218296248737e-06
5.03792595246189e-05
-2.03013532450469e-06
4.67245102146331e-05
-1.86837318984932e-06
4.33361846573841e-05
-1.70040175158665e-06
4.0195587723413e-05
-1.52939331144463e-06
3.72841474218352e-05
-1.35815393065235e-06
3.45841020322349e-05
-1.18910701953395e-06
3.20788670896334e-05
-1.0242940896401e-06
2.97531918195753e-05
-8.65391637926083e-07
2.75931819859235e-05
-7.13741990111895e-07
2.55862424651697e-05
-5.70395063960054e-07
2.37209758738495e-05
-4.36157469509497e-07
2.19870614673949e-05
-3.11644909435394e-07
2.03751299102887e-05
-1.97335265504293e-07
1.88766424471568e-05
-9.37880456126396e-08
1.74837820008355e-05
1.61894777388056e-05
-3.14965853757865e-08
4.24008531653551e-06
-1.14900561222307e-07
1.26853224053567e-05
-2.54956205267129e-07
2.09866552261638e-05
-4.45466226321273e-07
2.90532382671742e-05
-6.8234133646219e-07
3.67996582036865e-05
-9.59655920923544e-07
4.41530957358368e-05
-1.27085739916144e-06
5.10532378814384e-05
-1.60875512122333e-06
5.74537678496994e-05
-1.9657095437784e-06
6.33227717879244e-05
-2.33374233351142e-06
6.86426408168636e-05
-2.70460092363829e-06
7.34094763249947e-05
-3.069776589494e-06
7.76321118839399e-05
-3.42051340766575e-06
8.13308601134949e-05
-3.74733310229231e-06
8.45360076154599e-05
-4.04069477234149e-06
8.72880307355959e-05
-4.29261130702745e-06
8.96394644790864e-05
-4.48967365858815e-06
8.97820231205489e-05
-4.61410766469796e-06
8.4125068639188e-05
-4.66743949533847e-06
7.85384031860458e-05
-4.65490958465286e-06
7.31404853841038e-05
-4.58311728867662e-06
6.80011833822357e-05
-4.45904614362038e-06
6.31559383311355e-05
-4.289935435732e-06
5.86177210076667e-05
-4.08307938673339e-06
5.43852525965602e-05
-3.84565455206631e-06
5.04486159593994e-05
-3.58457219050001e-06
4.67930204064341e-05
-3.30635166037573e-06
4.34012773342444e-05
-3.01701442986328e-06
4.02553865559012e-05
-2.72199960347622e-06
3.7337516932272e-05
-2.42610212098488e-06
3.46305805794023e-05
-2.13343438595511e-06
3.21185392248831e-05
-1.84741121508924e-06
2.97865379517536e-05
-1.57075685013988e-06
2.76209309559315e-05
-1.30553157358609e-06
2.56092425919472e-05
-1.05317449564325e-06
2.3740092296035e-05
-8.14558478331088e-07
2.20031020036576e-05
-5.90049337276052e-07
2.03887978602779e-05
-3.79544370861057e-07
1.88885128672799e-05
-1.83291929834707e-07
1.74942974077241e-05
1.61988873950231e-05
-4.97819308393427e-08
4.27021364282181e-06
-1.84768842663812e-07
1.27757505316792e-05
-4.12221507054234e-07
2.11333865786736e-05
-7.23313794171137e-07
2.92504961799113e-05
-1.11306349080095e-06
3.70387954277419e-05
-1.57295232433081e-06
4.44242080325752e-05
-2.09339299887417e-06
5.13457023883349e-05
-2.66345388168155e-06
5.7757185590451e-05
-3.27116717568016e-06
6.3627801388356e-05
-3.90367747302763e-06
6.89417608508884e-05
-4.54734653924141e-06
7.36975865797712e-05
-5.18778983589833e-06
7.79069091567115e-05
-5.80976184530463e-06
8.15929498579254e-05
-6.3969406487147e-06
8.47891657326614e-05
-6.93259924795877e-06
8.75382568953798e-05
-7.40152488653124e-06
8.98965558637025e-05
-7.77697392590138e-06
9.00493952400623e-05
-8.02331301917075e-06
8.43811056162749e-05
-8.14491962306838e-06
7.87877130389051e-05
-8.15231189188404e-06
7.33812684331486e-05
-8.05575698654039e-06
6.82290461207169e-05
-7.86675526044509e-06
6.33655446543615e-05
-7.59727189064052e-06
5.88040978687726e-05
-7.2594217125681e-06
5.45445634289399e-05
-6.86517657202266e-06
5.05785225556086e-05
-6.42611686176178e-06
4.68927507422556e-05
-5.95322443907836e-06
4.34715001589785e-05
-5.45671432379387e-06
4.02979724808583e-05
-4.94590235417182e-06
3.73552455569506e-05
-4.42910617168448e-06
3.46268359926972e-05
-3.91357753754651e-06
3.20970224956197e-05
-3.40546472281349e-06
2.97510146656678e-05
-2.90980420634042e-06
2.75750238689099e-05
-2.43054096140062e-06
2.55562734547456e-05
-1.97057658859204e-06
2.36829723990729e-05
-1.5318454146826e-06
2.19442676918225e-05
-1.11540031106627e-06
2.03301846611185e-05
-7.21340216515898e-07
1.88315562086024e-05
-3.50765468693726e-07
1.74399417004615e-05
1.61477335965391e-05
-6.43042808709877e-08
4.32490367810174e-06
-2.41437725796869e-07
1.29395055051144e-05
-5.39396092548345e-07
2.14026505136909e-05
-9.46931220057153e-07
2.9619239652774e-05
-1.45807727971201e-06
3.74977783593506e-05
-2.06179253862084e-06
4.49622780985655e-05
-2.74583510409787e-06
5.19499656325296e-05
-3.4960867450111e-06
5.84136273780283e-05
-4.29703532503734e-06
6.43217145173718e-05
-5.13195644003181e-06
6.96580986230522e-05
-5.9830690482077e-06
7.44211607987959e-05
-6.83159428188501e-06
7.86224080012308e-05
-7.65762105251162e-06
8.22847950873406e-05
-8.44007968186479e-06
8.54413522334779e-05
-9.15752059126334e-06
8.81342781977366e-05
-9.78985656908724e-06
9.04207494260466e-05
-1.03010969699887e-05
9.04742007602083e-05
-1.06437337345701e-05
8.4663802727158e-05
-1.08242957872648e-05
7.8936002267466e-05
-1.08563886614402e-05
7.34035424359726e-05
-1.07528084216752e-05
6.81348916204892e-05
-1.0527969799248e-05
6.31655789590614e-05
-1.01967761075729e-05
5.85097861616423e-05
-9.77424604546609e-06
5.41679334366439e-05
-9.27515096785124e-06
5.01318446510553e-05
-8.71372531251158e-06
4.63882245277805e-05
-8.10344494376333e-06
4.29209769100883e-05
-7.45686888468946e-06
3.97127284914181e-05
-6.78553672356241e-06
3.67458104408705e-05
-6.09991195931789e-06
3.40028728805458e-05
-5.4093611019609e-06
3.14672534135036e-05
-4.72215908029646e-06
2.9123183268524e-05
-4.04551278250566e-06
2.69558881139371e-05
-3.3855957114091e-06
2.49516219013348e-05
-2.74758863630345e-06
2.30976588491833e-05
-2.13572859133304e-06
2.13822587638148e-05
-1.55334485588724e-06
1.97946117733654e-05
-1.00253258855538e-06
1.83247890474763e-05
-4.8773497886247e-07
1.69637990645079e-05
1.57033525501239e-05
-7.95001121376299e-08
4.40384892072559e-06
-3.01008083280523e-07
1.31755408068097e-05
-6.72955357540374e-07
2.17911058415148e-05
-1.18169785056515e-06
3.01519586565198e-05
-1.82011070417693e-06
3.81626019668961e-05
-2.57437929496913e-06
4.57442798525257e-05
-3.42946667369277e-06
5.28315485147984e-05
-4.36789545645767e-06
5.93751493499023e-05
-5.3704832935756e-06
6.53418776650825e-05
-6.41654806624506e-06
7.07142942616174e-05
-7.48413003846306e-06
7.5489669855048e-05
-8.55008276972473e-06
7.96784459508154e-05
-9.58998010083824e-06
8.33024369283971e-05
-1.05782704972112e-05
8.63934504436046e-05
-1.14891451833098e-05
8.8992883064799e-05
-1.22978072304027e-05
9.11581547568755e-05
-1.29590410287451e-05
9.10468470737376e-05
-1.34133669723733e-05
8.50171087889005e-05
-1.36693553495813e-05
7.90836965070381e-05
-1.37432160914717e-05
7.33618613221454e-05
-1.3650180551047e-05
6.7921769961204e-05
-1.34073311906914e-05
6.27999160630087e-05
-1.30322070750256e-05
5.80108338089569e-05
-1.25423765217034e-05
5.35547607601653e-05
-1.19549931894237e-05
4.94228958415913e-05
-1.12864510993354e-05
4.56009735729549e-05
-1.05521374280689e-05
4.20716828967259e-05
-9.76627936090513e-06
3.88162871188981e-05
-8.94187550714032e-06
3.5815689866998e-05
-8.09069703418904e-06
3.30511169382793e-05
-7.22334134535435e-06
3.05045332911487e-05
-6.34932191181393e-06
2.81588796095312e-05
-5.47718125002619e-06
2.59981883312217e-05
-4.61461870151836e-06
2.40076216903329e-05
-3.76863006002633e-06
2.2173462163171e-05
-2.94566623420723e-06
2.04830739696259e-05
-2.15174454342197e-06
1.89248318255852e-05
-1.39226680798041e-06
1.74879949147463e-05
-6.80183879492287e-07
1.61625845490154e-05
1.49405399523342e-05
-9.57213410038255e-08
4.49822011228466e-06
-3.64492218102509e-07
1.34576648849049e-05
-8.14977530114149e-07
2.22554747484807e-05
-1.43124231628504e-06
3.07889756484413e-05
-2.20478639249006e-06
3.89581561843776e-05
-3.11881375685102e-06
4.6680956331761e-05
-4.15531202456047e-06
5.3888776914618e-05
-5.29320661390527e-06
6.05299369536928e-05
-6.50943533038045e-06
6.65692707849189e-05
-7.77917042059715e-06
7.19878305627752e-05
-9.07613644636415e-06
7.67816811834448e-05
-1.03727602486449e-05
8.09602100808186e-05
-1.16401858715749e-05
8.45442167444013e-05
-1.28486285230937e-05
8.75645552496178e-05
-1.39681518861821e-05
9.00622587593733e-05
-1.49691136302011e-05
9.20947338873175e-05
-1.57968979359877e-05
9.17991032640909e-05
-1.63799723811821e-05
8.55188128059577e-05
-1.67294141568726e-05
7.93501835900983e-05
-1.68641101402653e-05
7.34112820292887e-05
-1.68019032510931e-05
6.77739262519619e-05
-1.65626116018541e-05
6.24755254370587e-05
-1.61664654981984e-05
5.75308869329017e-05
-1.5633624797151e-05
5.2939964791214e-05
-1.49836335707874e-05
4.86932047632616e-05
-1.42349925432758e-05
4.47752077257834e-05
-1.34048306205854e-05
4.11672478358674e-05
-1.25086859516638e-05
3.7848995423814e-05
-1.15603876611885e-05
3.47996806377151e-05
-1.0572021971266e-05
3.19988592889814e-05
-9.55396031788662e-06
2.94268946409119e-05
-8.51492420419991e-06
2.70652375778838e-05
-7.46206248290381e-06
2.48965659016487e-05
-6.40102410942319e-06
2.29048285802534e-05
-5.33601326052143e-06
2.10752338295062e-05
-4.26973531963838e-06
1.93942179040671e-05
-3.20284219965684e-06
1.7849410533017e-05
-2.13330818597195e-06
1.64295810598452e-05
-1.07675124422306e-06
1.51247810261952e-05
1.39080475974635e-05
-9.89699295680537e-08
4.59249728053568e-06
-3.76330622117608e-07
1.37397298860251e-05
-8.41890705378454e-07
2.27204255207378e-05
-1.47900555635782e-06
3.14277355331554e-05
-2.27985645159794e-06
3.97572506964271e-05
-3.22710575376726e-06
4.76235107217175e-05
-4.30252895403321e-06
5.49546147437305e-05
-5.48433553925635e-06
6.16963064437009e-05
-6.7485449801247e-06
6.78112670600867e-05
-8.06910623672663e-06
7.32788612979893e-05
-9.41825902223951e-06
7.80937893519317e-05
-1.07667096301851e-05
8.22642692847506e-05
-1.20837586350806e-05
8.58100275985832e-05
-1.33377723754933e-05
8.87609753784069e-05
-1.44964800584331e-05
9.11577132468774e-05
-1.55267229343672e-05
9.30567631300336e-05
-1.63706514370329e-05
9.25736319745536e-05
-1.69551340638236e-05
8.60382256188227e-05
-1.72915451955575e-05
7.96285242379994e-05
-1.73996119928487e-05
7.34657339073954e-05
-1.72980267674623e-05
6.76235533729706e-05
-1.70077042090323e-05
6.21405908297721e-05
-1.65501394452653e-05
5.70322589405176e-05
-1.59469382520798e-05
5.22985640654189e-05
-1.52192161577769e-05
4.7929503246188e-05
-1.43871125383807e-05
4.39087805944637e-05
-1.3469386104773e-05
4.02164012975099e-05
-1.2483120267106e-05
3.68304885234196e-05
-1.14435458780589e-05
3.37285513612412e-05
-1.03639786904141e-05
3.08883540317459e-05
-9.25586033752312e-06
2.82884898920695e-05
-8.12888196032644e-06
2.59087354671695e-05
-6.99114728251332e-06
2.37302409585941e-05
-5.84932958967249e-06
2.17356003686826e-05
-4.70911662050162e-06
1.99088465842118e-05
-3.5774077114441e-06
1.82354496185157e-05
-2.4640557590559e-06
1.67023591603885e-05
-1.32196927006522e-06
1.52977541788138e-05
5.0510163119107e-07
1.40139316930473e-05
1.28026036200589e-05
-8.72575423267294e-08
4.67310813092381e-06
-3.28747416838257e-07
1.39811466627227e-05
-7.36339798799967e-07
2.31190525780973e-05
-1.29439108971715e-06
3.19763889218641e-05
-1.99809363670174e-06
4.04448850163148e-05
-2.83240706926149e-06
4.8436006419968e-05
-3.78216436387587e-06
5.58746936507459e-05
-4.82833890547219e-06
6.27041400604439e-05
-5.9496715896614e-06
6.88847505887526e-05
-7.12255167164846e-06
7.4394003651169e-05
-8.32136865413936e-06
7.92249836787475e-05
-9.51867515947382e-06
8.33844858477449e-05
-1.06854017936755e-05
8.68909352208189e-05
-1.17913669274579e-05
8.9773092959853e-05
-1.28048596743617e-05
9.20707387756822e-05
-1.36922026215485e-05
9.38386471600738e-05
-1.44008998065642e-05
9.31744744011133e-05
-1.48674652054871e-05
8.64029272178297e-05
-1.51008451394916e-05
7.97692261465759e-05
-1.51194544084975e-05
7.33977083412828e-05
-1.49404517445294e-05
6.73641113961555e-05
-1.45834795724961e-05
6.17084150479777e-05
-1.40690150859785e-05
5.64469410036213e-05
-1.34180662160354e-05
5.15801500746766e-05
-1.26516488218104e-05
4.7098063648283e-05
-1.17903562589574e-05
4.29839877379849e-05
-1.08539624930423e-05
3.92171333906001e-05
-9.86108673467529e-06
3.57744829003432e-05
-8.82894319943045e-06
3.26321304333791e-05
-7.77319045796846e-06
2.97662393928127e-05
-6.70788757411375e-06
2.715370985607e-05
-5.64556240010299e-06
2.47726213202429e-05
-4.59734485026685e-06
2.26024982008051e-05
-3.57285144077766e-06
2.06244273736768e-05
-2.57957005258131e-06
1.88210688450502e-05
-1.62713629518166e-06
1.7176754949174e-05
-7.58147966976217e-07
1.56777914203705e-05
2.9585803545107e-08
1.43096316624996e-05
2.86102455100194e-06
1.30543914740775e-05
1.19372490070484e-05
-7.46623761070454e-08
4.7403074117043e-06
-2.77564712637222e-07
1.41824165731945e-05
-6.22342581054154e-07
2.34517454199248e-05
-1.09426571382696e-06
3.24350446017685e-05
-1.69150181881038e-06
4.10208168314085e-05
-2.40140612698164e-06
4.91179176581798e-05
-3.21212027612856e-06
5.66483899971237e-05
-4.10772568795712e-06
6.35530127809724e-05
-5.07019255654931e-06
6.97898929981396e-05
-6.0789982955966e-06
7.53345292507946e-05
-7.11151224799329e-06
8.01782535283581e-05
-8.14316922040164e-06
8.43263209047961e-05
-9.1477820468429e-06
8.77957896523578e-05
-1.00981244383574e-05
9.06142397828118e-05
-1.09648992203624e-05
9.28204570017117e-05
-1.17162844386172e-05
9.44672639739324e-05
-1.23083040501403e-05
9.36385679390628e-05
-1.26881634056838e-05
8.6659538087897e-05
-1.28626499935523e-05
7.98291224479803e-05
-1.28487091156729e-05
7.32743788281411e-05
-1.26612844715661e-05
6.70728941418385e-05
-1.23176824859246e-05
6.1265779253554e-05
-1.18358878865614e-05
5.58701948159895e-05
-1.1234521209359e-05
5.08871590949008e-05
-1.05325006807516e-05
4.6307005621137e-05
-9.74877816037007e-06
4.21130843143533e-05
-8.90202771797724e-06
3.82843519242194e-05
-8.0103145855522e-06
3.47972161511365e-05
-7.09075463628727e-06
3.1626874541511e-05
-6.15917884990218e-06
2.87482951636608e-05
-5.22983103507421e-06
2.61369308348386e-05
-4.31515561630218e-06
2.37692275978632e-05
-3.42577956530524e-06
2.16229688677343e-05
-2.57018357111385e-06
1.96774559682644e-05
-1.75108834272763e-06
1.7913509848301e-05
-9.62522747690972e-07
1.63137596203552e-05
-2.74259494119421e-07
1.48643193592857e-05
-1.33098479708155e-08
1.35478110919435e-05
3.76318103333082e-06
1.22958941235273e-05
1.13673789360131e-05
-6.10304124508465e-08
4.79330013284558e-06
-2.22030023331561e-07
1.43408004255043e-05
-4.97955651541903e-07
2.3713371431922e-05
-8.74741143733862e-07
3.2795875497085e-05
-1.35336509528473e-06
4.14743615542618e-05
-1.92356218901899e-06
4.96556983485227e-05
-2.5769420751025e-06
5.72594493747359e-05
-3.30097535408642e-06
6.42242776873571e-05
-4.08132791337542e-06
7.05061307854242e-05
-4.90118160800288e-06
7.60786006115709e-05
-5.74168168065134e-06
8.09313030877922e-05
-6.58212273069337e-06
8.5068023047343e-05
-7.40034325520989e-06
8.85045887671529e-05
-8.17341737900281e-06
9.12675772039948e-05
-8.87620217370886e-06
9.33948739063229e-05
-9.48091782234093e-06
9.49376914971849e-05
-9.95498190294046e-06
9.39710183031328e-05
-1.02581506172256e-05
8.68247679317005e-05
-1.03954278333664e-05
7.98367984724914e-05
-1.03822105947363e-05
7.31362074893453e-05
-1.02306981836216e-05
6.68017966421089e-05
-9.95488082059738e-06
6.0875086373325e-05
-9.56868370487799e-06
5.53735021350178e-05
-9.08618783704757e-06
5.02982063591139e-05
-8.52148844137106e-06
4.56396517734704e-05
-7.88868018647599e-06
4.13812715494871e-05
-7.20177999533224e-06
3.75020260595188e-05
-6.47459325308065e-06
3.39781829520587e-05
-5.72051199509598e-06
3.07845927422881e-05
-4.95225805314015e-06
2.78956226035123e-05
-4.18158308938472e-06
2.52858489208539e-05
-3.41898144659247e-06
2.29305751929206e-05
-2.67381568985538e-06
2.0806225488821e-05
-1.95506331602929e-06
1.88905852560998e-05
-1.26621582188598e-06
1.71626790177627e-05
-5.80270528858871e-07
1.56029927107215e-05
5.00733671288065e-08
1.41983483748285e-05
-3.50317838266243e-07
1.29378499987369e-05
4.26532699859327e-06
1.16535110594322e-05
1.09580288764685e-05
-4.68558376041591e-08
4.83143988692587e-06
-1.64032904289629e-07
1.44539380937782e-05
-3.67201518243671e-07
2.38993058837557e-05
-6.42503689429485e-07
3.30515444368203e-05
-9.93343062287425e-07
4.17951394169072e-05
-1.41157931286404e-06
5.00357394118325e-05
-1.89220789480696e-06
5.76910042462862e-05
-2.42613175532062e-06
6.4697945703779e-05
-3.00294277794102e-06
7.10106555710382e-05
-3.60989995103618e-06
7.66010566530362e-05
-4.23245765029935e-06
8.1457242896415e-05
-4.85444634709414e-06
8.55817504715275e-05
-5.45851318467271e-06
8.89894579392838e-05
-6.02693458599243e-06
9.17062629257358e-05
-6.53997588695092e-06
9.37694195055909e-05
-6.97540538926505e-06
9.52291444579462e-05
-7.31395418103704e-06
9.41570839945497e-05
-7.53016907092044e-06
8.68921947437652e-05
-7.6278407073347e-06
7.97942530514599e-05
-7.62102556054354e-06
7.29938481582291e-05
-7.51930024386395e-06
6.65701115313327e-05
-7.33327375429163e-06
6.05640052767517e-05
-7.07240557398019e-06
5.49923333132501e-05
-6.7454321000584e-06
4.98555872605956e-05
-6.36033330504536e-06
4.51436762675772e-05
-5.92454483303501e-06
4.08396540783713e-05
-5.44515949824016e-06
3.69222734489507e-05
-4.9291206979431e-06
3.33677218828721e-05
-4.38337147806389e-06
3.01508384175192e-05
-3.81494554698748e-06
2.72459802853343e-05
-3.23095822803571e-06
2.46276521240997e-05
-2.63841097062543e-06
2.22709726563994e-05
-2.04432915264669e-06
2.01520559575134e-05
-1.45836093481969e-06
1.82482999302221e-05
-8.91258735685914e-07
1.6538017400575e-05
-2.99822616431366e-07
1.49994790924569e-05
3.56633551411552e-07
1.3620511193019e-05
-5.94949424580791e-07
1.24165797276172e-05
4.62082345904419e-06
1.10683140028486e-05
1.06398860633153e-05
-3.19201686033696e-08
4.85390356640303e-06
-1.0268494811374e-07
1.45189038495192e-05
-2.27968065552708e-07
2.40038986939485e-05
-3.93541046453531e-07
3.31931000617271e-05
-6.04724614787046e-07
4.19704458020386e-05
-8.55127832274211e-07
5.02412560630544e-05
-1.14294198357441e-06
5.7922032993953e-05
-1.46244644980662e-06
6.49487629899039e-05
-1.80729414307104e-06
7.12741509343824e-05
-2.16908678144285e-06
7.68688360637316e-05
-2.53798583607905e-06
8.1719711181752e-05
-2.90284816959156e-06
8.58283819418895e-05
-3.25165920914754e-06
8.92090346472414e-05
-3.57243048927792e-06
9.188750930805e-05
-3.85161540322553e-06
9.39004844926445e-05
-4.07333279407148e-06
9.52977668442842e-05
-4.23280637308354e-06
9.41539776848336e-05
-4.32246972985278e-06
8.68232504782608e-05
-4.34531325160252e-06
7.96671173694095e-05
-4.31422144449405e-06
7.28176021897579e-05
-4.23669841323067e-06
6.63532119582001e-05
-4.1207283344254e-06
6.03135020558111e-05
-3.97221917691668e-06
5.4713874906256e-05
-3.79561379332398e-06
4.95532751808052e-05
-3.59381878406884e-06
4.48202308317778e-05
-3.36850359617324e-06
4.04974024411331e-05
-3.12040315695418e-06
3.65623727616528e-05
-2.84965181131478e-06
3.29909147030118e-05
-2.55612724072534e-06
2.97577407384059e-05
-2.23978167425803e-06
2.68373224947082e-05
-1.90093046102866e-06
2.4204461858758e-05
-1.5402306492652e-06
2.18346848075021e-05
-1.15844750702803e-06
1.97045544593257e-05
-7.60543305103466e-07
1.7792058739796e-05
-3.6500924147875e-07
1.60763086231568e-05
7.3958667669763e-08
1.45338313236059e-05
7.75537757624329e-07
1.31490112502441e-05
-6.8492537937096e-07
1.19962011834923e-05
4.99191114177269e-06
1.05300530981445e-05
1.04263333902552e-05
-1.64867820767979e-08
4.85982938516905e-06
-3.91287740749012e-08
1.45324709237301e-05
-8.28376654784468e-08
2.40204784967165e-05
-1.32305352134672e-07
3.32090613858492e-05
-1.94096824750164e-07
4.19828162764551e-05
-2.63009152796399e-07
5.02476736365659e-05
-3.40044903033163e-07
5.79200002655114e-05
-4.2260003111629e-07
6.49355860222016e-05
-5.08311675269463e-07
7.12465030083749e-05
-5.93162211346033e-07
7.68227392393673e-05
-6.72164458636936e-07
8.16505442995332e-05
-7.39375320363812e-07
8.57311010784986e-05
-7.8836751375257e-07
8.90784756859549e-05
-8.1299242955648e-07
9.17185761407118e-05
-8.06116271544275e-07
9.36883386133441e-05
-7.58361037530723e-07
9.5037005423479e-05
-6.79728213170183e-07
9.38512325694458e-05
-5.83857929006943e-07
8.65127970716472e-05
-4.72868092402023e-07
7.93537945937257e-05
-3.58146606266453e-07
7.25102295927079e-05
-2.4559670742527e-07
6.60584698874057e-05
-1.41319902709606e-07
6.00360222207211e-05
-4.88804731194522e-08
5.44563814771786e-05
2.97847692517819e-08
4.93166199682605e-05
9.49275584805957e-08
4.46036052180936e-05
1.48126369056919e-07
4.02987382319283e-05
1.91893098594323e-07
3.63784735366211e-05
2.29915212742396e-07
3.28178639986609e-05
2.66530641068689e-07
2.95912331215959e-05
3.06460245821988e-07
2.66729636328164e-05
3.54519825171055e-07
2.40380289051638e-05
4.15557178503787e-07
2.16623312459503e-05
4.95731921784943e-07
1.95229096244177e-05
6.00679978092383e-07
1.75983235980783e-05
7.09477636504939e-07
1.58691964174747e-05
8.40127137529514e-07
1.43133017253977e-05
1.52871437830969e-06
1.28948649233963e-05
-5.8367151449232e-07
1.17852748253357e-05
5.39378828296983e-06
1.01962474351241e-05
1.0396178870467e-05
-3.78708086036123e-10
4.85150911660121e-06
2.69342367939033e-08
1.45026450252392e-05
6.87341112237193e-08
2.39647421287499e-05
1.42037928033541e-07
3.31252719767108e-05
2.39999968806165e-07
4.18709418274357e-05
3.67203252034756e-07
5.01092739968575e-05
5.20358785898112e-07
5.77573677522779e-05
6.99273353900292e-07
6.47512055014986e-05
9.02503497803577e-07
7.1042394525667e-05
1.12973220368823e-06
7.66001275445933e-05
1.38105330559522e-06
8.14096962232717e-05
1.65708023117582e-06
8.54714290635965e-05
1.9586903240973e-06
8.8798872011504e-05
2.28626884416001e-06
9.14174165717618e-05
2.64046688258063e-06
9.33638441971759e-05
3.02464214271932e-06
9.46861688379763e-05
3.41509749468518e-06
9.34874350168807e-05
3.77179740286545e-06
8.61825437014663e-05
4.09323716239908e-06
7.90534839727263e-05
4.3715649674717e-06
7.22467332057547e-05
4.60224458461415e-06
6.5836663710111e-05
4.78122854683503e-06
5.9858986082664e-05
4.90713801126332e-06
5.43254645270015e-05
4.98014698183362e-06
4.92316043712948e-05
5.00221755161896e-06
4.4562869219993e-05
4.97655719695427e-06
4.02988615408598e-05
4.90729002253608e-06
3.64153925436128e-05
4.79935137329531e-06
3.28867680605326e-05
4.65810716236801e-06
2.9686833471655e-05
4.48906910173581e-06
2.67897469751082e-05
4.29757050740025e-06
2.41704857215318e-05
4.08831157804508e-06
2.18051582636982e-05
3.86611855662436e-06
1.96711381209466e-05
3.63971761685705e-06
1.77472023380929e-05
3.39655151422997e-06
1.60146744636537e-05
3.04478046658784e-06
1.44580759319102e-05
3.48405523221294e-06
1.30064535386475e-05
8.01326296199302e-07
1.19300868365862e-05
6.10269752995479e-06
1.02887711826606e-05
1.07110748033268e-05
7.94840851331012e-08
4.75901376736143e-06
3.40567229120496e-07
1.42285074102558e-05
7.51968095234432e-07
2.35198104393288e-05
1.31151169349134e-06
3.25252087520035e-05
1.98849195815112e-06
4.11360193620206e-05
2.76350717612339e-06
4.92627652365914e-05
3.60757851366659e-06
5.6824239486527e-05
4.49564371531617e-06
6.37566432255184e-05
5.40232483018876e-06
7.00105099076224e-05
6.30548801463812e-06
7.55529342891639e-05
7.18597991079778e-06
8.03664433252982e-05
8.02815815848881e-06
8.4448339516453e-05
8.81984173545971e-06
8.78092147666402e-05
9.55154210106242e-06
9.04718687549764e-05
1.02163193553758e-05
9.24702338446779e-05
1.08139993934665e-05
9.38491893686458e-05
1.13168050139017e-05
9.27350715671104e-05
1.16798946388303e-05
8.55821126991377e-05
1.19186951623885e-05
7.85827903258187e-05
1.2046902380208e-05
7.18972097801357e-05
1.20717683733196e-05
6.56006127305689e-05
1.19991518238475e-05
5.97290451966277e-05
1.18356614489258e-05
5.42942565300022e-05
1.15877565871195e-05
4.92916261860616e-05
1.12622056389271e-05
4.47064115800729e-05
1.08659622019622e-05
4.05178168850124e-05
1.04060993783033e-05
3.67016027126745e-05
9.88979100533357e-06
3.32320061387503e-05
9.32417637684343e-06
3.00829167994603e-05
8.7162616442792e-06
2.72286609329372e-05
8.07284096575865e-06
2.46445027567752e-05
7.40008650374832e-06
2.2306957264676e-05
6.70292550389321e-06
2.01939425973111e-05
5.99288779495647e-06
1.82846416466031e-05
5.29503975587509e-06
1.65592495985778e-05
4.31797920723538e-06
1.50166320205149e-05
4.65987005132639e-06
1.35363773461276e-05
7.25241764372271e-07
1.24875632586861e-05
6.59843379841041e-06
1.08495661067735e-05
1.14460382999355e-05
7.01414800835668e-08
4.67156546161187e-06
3.0373282621595e-07
1.39684305366069e-05
6.70947333284056e-07
2.30961306220465e-05
1.17008497609756e-06
3.19518792585166e-05
1.77177136252599e-06
4.04315151769418e-05
2.45785119318157e-06
4.84485928123715e-05
3.20070552701951e-06
5.59236917666573e-05
3.97662387543413e-06
6.2793409572658e-05
4.76150249327204e-06
6.90074381372837e-05
5.53441133352493e-06
7.45310427702088e-05
6.27732686446608e-06
7.93442593203462e-05
6.97567746140888e-06
8.34416281330842e-05
7.61828639295512e-06
8.68310457744226e-05
8.19673893989667e-06
8.95329203022233e-05
8.70423522736223e-06
9.15790204723665e-05
9.1408796787027e-06
9.30118811993217e-05
9.48954249941728e-06
9.19781012515139e-05
9.7152032371792e-06
8.49662441327385e-05
9.82975867184777e-06
7.80931636276066e-05
9.84979232147381e-06
7.15246697011902e-05
9.78200530320463e-06
6.53370787047251e-05
9.63266022020477e-06
5.95669862016825e-05
9.4084614286427e-06
5.42262119530549e-05
9.11582662259198e-06
4.93101098761059e-05
8.76130784544081e-06
4.48038855537252e-05
8.35157388882826e-06
4.06866745988091e-05
7.89339634967272e-06
3.69342725686964e-05
7.39362370879677e-06
3.35209938337847e-05
6.85911278107816e-06
3.0420873248082e-05
6.29666225634092e-06
2.76084512551073e-05
5.71301149120266e-06
2.5059268199193e-05
5.114770995376e-06
2.27501658163039e-05
4.5067332245552e-06
2.0659489729032e-05
3.89274632905991e-06
1.87671588270325e-05
3.34864073406236e-06
1.70498853729843e-05
2.4344413603021e-06
1.55234453080607e-05
3.00808767907851e-06
1.40250584843649e-05
-5.42878776885697e-07
1.29907956597781e-05
3.776970731365e-06
1.13822540721587e-05
1.20618294032465e-05
6.2961371405374e-08
4.59287092019124e-06
2.74794831295319e-07
1.37345981598593e-05
6.07142490522184e-07
2.27161085630153e-05
1.05875121969724e-06
3.1439553911427e-05
1.60144097963843e-06
3.98051489654716e-05
2.2181004826809e-06
4.77293891711527e-05
2.88223905166203e-06
5.51345496185467e-05
3.57125386539239e-06
6.19575636165749e-05
4.2620742107137e-06
6.81472084431946e-05
4.93476492041427e-06
7.36668303718863e-05
5.5722722316672e-06
7.84938441136669e-05