/*--------------------------------*- C++ -*----------------------------------*\
| =========                 |                                                 |
| \\      /  F ield         | OpenFOAM: The Open Source CFD Toolbox           |
|  \\    /   O peration     | Version:  2112                                  |
|   \\  /    A nd           | Website:  www.openfoam.com                      |
|    \\/     M anipulation  |                                                 |
\*---------------------------------------------------------------------------*/
FoamFile
{
    version     2.0;
    format      ascii;
    arch        "LSB;label=64;scalar=64";
    class       volScalarField;
    location    "0.01";
    object      rho;
}
// * * * * * * * * * * * * * * * * * * * * * * * * * * * * * * * * * * * * * //

dimensions      [1 -3 0 0 0 0 0];

internalField   nonuniform List<scalar> 
5240
(
58.0942884336006
85.4901250727679
85.1657428484934
84.3003613494729
83.3240445399543
83.064404592526
82.8063447763251
82.7888890504547
83.3940468453019
82.1388104360487
83.9847137989857
79.8137494186323
84.1177611530984
77.1075819626324
82.8470711633395
77.9141862969192
79.1805210997393
88.44543538568
82.1586947120723
85.7801847332757
81.8388438373098
81.156387926601
84.9147226916889
94.2092201093046
109.296039005066
120.705309823228
127.485896621143
160.279782719708
255.971026043417
350.230657120162
377.500347086035
409.988196019888
379.7927188286
436.635471621017
510.522132780028
597.919401569789
711.888020116884
868.427970843932
966.715333967018
1248.22435187948
10.5057910277545
10.6998727914625
10.7180878160466
10.7030122018844
10.6856079133836
10.6903302337194
10.6906746635683
10.7052264926404
10.7304204220977
10.6972301759307
10.8086586051881
10.7320465426656
10.8370350738327
10.8151674684188
11.0544478105089
11.2721682570986
11.8828533647736
11.4228442530591
12.0397359868093
11.331792543692
12.3409032419422
13.0118433969675
16.0628104587151
18.0553959181742
21.2139007691663
25.3146482223942
28.8725372850245
31.3539305608102
35.2946662475168
38.2423635964205
39.9062163880138
84.4229602534972
100.165894201699
85.4382085349948
65.9590055091243
51.6977076017412
44.2427232052227
51.9131760161831
65.8662633363785
90.6274675108411
8.67685174354456
8.6565899156842
8.64069216223698
8.61976769201567
8.60457038970012
8.58391105370968
8.56988230928714
8.56444374801643
8.55569959286606
8.59251224207791
8.54650927082527
8.67695924367233
8.55849412241644
8.81607916448797
8.59283255355722
8.8937638254668
8.63955914462568
8.62477607258721
9.58272138787174
8.69755570901936
9.97896630804741
8.75140123703306
10.8463302987384
9.0271680950783
8.7873375250921
9.64741459808647
9.87057101142818
10.2990460713848
10.8182928574633
30.7265538624393
54.0232613224845
72.8640873200606
57.099697760894
37.208427821458
36.9656860467823
23.9006442691211
8.60965825029966
8.50417782509181
8.47099838024416
8.4568569916991
8.66620035857593
8.64847250566636
8.62022925769089
8.59433202997919
8.57269503868313
8.55416863380069
8.54156252485006
8.53778960118518
8.54014428251768
8.54806588952542
8.55392846529616
8.57212523358365
8.5721157347997
8.60999032919811
8.60355349588398
8.64645981831941
8.63509024084437
8.64872194240803
8.85263123800916
8.66866438792435
9.04983762448382
8.68154760358736
9.07915247967722
8.74926741110207
8.90794441838692
9.33984492028981
10.9058195257834
16.1788695645454
21.5570088905294
36.6675577759271
46.5890740054406
51.0455483828001
29.4699188260035
12.7116340102948
14.6064096128203
10.3434210373788
8.95630109180887
8.58368622077824
8.51003184908134
8.49177856399179
8.66400417149564
8.6472333811237
8.6211544248861
8.5975537460382
8.57731298316794
8.55953729350869
8.54610275582354
8.54152666446869
8.54521773656354
8.55374334928725
8.56465286683342
8.57807373831375
8.58879322528811
8.60607051381966
8.62351218908188
8.64485599734674
8.65632266790123
8.66679526021259
8.6905265395514
8.66937878882496
8.71395764092873
8.65854739856641
8.68669078973883
8.76901087440829
9.43244380388085
12.221118111881
15.5158826698871
19.1633897662445
24.1673847103966
32.1298494566531
33.0079202347217
28.8807491946734
14.5228732584549
9.78574231876607
9.64935890451251
9.13731011728462
8.80759201962294
8.61390837609086
8.53960085046251
8.51819289965244
8.66121062678755
8.64623938239104
8.62482645706596
8.60295897710844
8.58358281312733
8.56843298018902
8.55617340158091
8.55119111453341
8.55606046470642
8.56578204502913
8.57833021647013
8.59398068738226
8.60738088740843
8.62367016475229
8.64561781561696
8.66461797606638
8.67951021935406
8.68785002358002
8.68930130675363
8.68341607639941
8.67969040943861
8.67403556720145
8.71093727977943
8.96714418545202
9.94882699842226
12.1221342960303
15.4946951504454
19.3870686563883
23.5303785631755
27.4795312788371
24.6704326052103
18.9780690405878
12.8317884352614
11.7644554827447
10.5274026872643
9.6098250998221
9.02083918910506
8.69845259880103
8.57302663068697
8.54159901983741
8.66207833680809
8.64979049610459
8.63370572321776
8.61342053407196
8.59514203133092
8.5817735168571
8.56951069719746
8.5622687610289
8.5662558616355
8.57840123556268
8.59523153987051
8.61389083555581
8.62886582572443
8.64739551632878
8.66997118794755
8.68869940412519
8.70369568779535
8.70832587856668
8.70537008462316
8.69882012477956
8.69213580145098
8.68944526952804
8.72378023799699
8.91938977812596
9.5748403216181
11.1646571919077
14.0278381239147
17.8389454017138
21.9475327903312
25.1106519059339
21.8904928189574
16.9434666631541
14.3860011721827
13.3733860749733
11.8717308262454
10.3108625762031
9.3188640755533
8.81197116757331
8.61901904683818
8.57585635483637
8.66312408093655
8.65499953529948
8.64540439064326
8.63023471648761
8.61376992648012
8.59827517186166
8.58403941621296
8.57624072947219
8.58019633860171
8.59411504694892
8.6144182518806
8.63670152742908
8.65529605967242
8.6743117127001
8.69584095734572
8.7142567652416
8.72716143088786
8.72901638335968
8.72490428066256
8.71796594499327
8.71040857506492
8.70548194111754
8.72246411008831
8.83153789936334
9.21293082670709
10.2011361837683
12.2152048785368
15.4643180945995
19.8674638851442
22.9070155525527
20.7571870016772
17.371399346453
15.2564195474576
13.4523222278751
11.6573894562793
10.2130652667547
9.27710106553311
8.80840089018298
8.64930105283962
8.62176098281426
8.66309253052881
8.66053369309253
8.65912892907492
8.65175764772162
8.63841735227953
8.62185563274711
8.60774799280995
8.60228913417075
8.60767941568143
8.62093306990457
8.63939609993076
8.66191346723212
8.68377894639839
8.70299284488889
8.72230741988719
8.73950740705435
8.74908911106012
8.7498254445938
8.74593781648713
8.73911040427393
8.73129721724146
8.7252459491504
8.72965639519647
8.77785135289223
8.96898293973667
9.51737884429363
10.763092500233
13.1168844248741
17.1515171718769
20.5664816564421
19.2158302146829
16.6352783271801
14.3322398482305
12.2281848876244
10.5199732914912
9.45538613892194
8.9251718861933
8.7212225635818
8.67748218309721
8.67430823614974
8.67321423080403
8.6755353583707
8.68138281370059
8.68080370443635
8.67106761427642
8.65578058870684
8.64268256725348
8.6381477512463
8.64342229975054
8.65478859922485
8.66933495165351
8.6883084993189
8.71015207336896
8.73031774511986
8.74846909364193
8.76392746261944
8.77124371434843
8.77178568129762
8.76841594052196
8.76258130829989
8.75622374679183
8.75123936174268
8.75070282253091
8.76766863854264
8.84915824120449
9.11714930917645
9.80950819324448
11.2733253802444
14.1720258248565
17.9066254164561
16.3799928506212
14.0940840989031
12.0420463665146
10.4582149712364
9.45849088721652
8.96477396835069
8.77852936022619
8.72570529704371
8.72953888486247
8.72899616411417
8.6974906022079
8.70291185443613
8.71340590750498
8.71682349618939
8.70919368054398
8.69452500766395
8.68072747071337
8.67423695519476
8.67715685175558
8.68667164330301
8.69910365739728
8.71494745133179
8.73479602541295
8.75500055554027
8.7727372192813
8.78679685952405
8.79361008778454
8.79470615542473
8.79228504015008
8.78827727767855
8.78435509942428
8.78149776416705
8.7805325124351
8.78532267017528
8.81347999595601
8.91957727625076
9.23389976954606
9.99974805098621
11.604142700566
14.5556950463687
12.8865560162709
11.2652516672789
10.0767865085307
9.34625944277593
8.97834250842906
8.82883931033069
8.78050801355034
8.7680892915152
8.78221728706589
8.77697070897016
8.72754774365266
8.73466186749894
8.74765058541102
8.75288585133352
8.74565081114258
8.73007146037268
8.71420644905849
8.70473791250596
8.70468235847968
8.71280279507582
8.72533302380439
8.74054318581573
8.75871068053558
8.77761334676939
8.79433406232817
8.80741472884291
8.81473235798419
8.81708254184751
8.81631179691316
8.81452565999768
8.81304169751221
8.8122646094692
8.81229277556528
8.81394065023575
8.82230048025337
8.85592069428644
8.96596401274605
9.26735117796074
9.96998229614624
11.4069458382398
10.3858553358806
9.62817578926752
9.18294444457899
8.95539599321291
8.85669154326698
8.8208412677912
8.81033813794645
8.8073415925034
8.82463441023685
8.81534437230353
8.75480768643459
8.76278723054629
8.77701547174046
8.78303937639582
8.77555926244731
8.75870342105771
8.74097024292742
8.72940041724863
8.72730372815953
8.73456887037659
8.74799381137414
8.76387571032006
8.78079241530666
8.79758131664424
8.81272824651934
8.82538064633331
8.83399703785305
8.83839066950158
8.83991729104361
8.84044340207252
8.84103461830672
8.84191682918106
8.84298474983054
8.84429003095537
8.84701991220732
8.85631015848724
8.88762025393097
8.97894990695308
9.20586288456583
9.67628112352289
9.30835955252586
9.05532793992563
8.93035083132337
8.87346795961397
8.85071626183582
8.84280712797013
8.84077050440167
8.8399849678343
8.85770479115331
8.84629270429135
8.77583676966167
8.78417670266892
8.79900246681732
8.80564297210604
8.79832351584028
8.78095180587881
8.76240451807449
8.75018581582411
8.74757637712569
8.75464092216311
8.76863630963529
8.7848702881767
8.80028363048747
8.81434807665109
8.82746970250572
8.83994835179082
8.85046370741339
8.85770616748977
8.86213687093101
8.86511249895624
8.86756382229245
8.86978226480117
8.87170787321577
8.87329080788363
8.87476383341285
8.8774060609277
8.88527498064323
8.90868478102595
8.96809267549517
9.08702504024472
8.99078872724715
8.92132419644013
8.88993185566135
8.87630134076143
8.8707694239465
8.86867571974268
8.86833233617881
8.86839934199111
8.88449372998963
8.87309331278308
8.7900804739789
8.79855266079293
8.81386452007203
8.82157008389364
8.81544711397194
8.79884490658222
8.78060927070317
8.76874354404915
8.76671305035113
8.77419434163538
8.78832463223039
8.80414278352976
8.81775158844925
8.82885833531609
8.83946282828929
8.85123324986278
8.86332277693096
8.87350165097397
8.88106025421003
8.88663957068562
8.89098646848887
8.89450152417323
8.89727707617481
8.89933817075385
8.90077386331699
8.90193797309115
8.90389102509752
8.90928808328893
8.92323837258989
8.95002961047292
8.92758475042423
8.90913002981875
8.90052175371476
8.89645175983245
8.89443188475565
8.89346839387072
8.89349338790832
8.89423122722303
8.90810060871739
8.89795938447707
8.7986741766126
8.80724729772225
8.82333449429816
8.83302822600901
8.82962497458365
8.81542964320916
8.79876238703964
8.78788004684169
8.78671611802892
8.79478622897498
8.80875491552479
8.82365746767155
8.83544858387104
8.84383040313363
8.85167414702243
8.86190446915344
8.87462946723626
8.88731897422228
8.89805337210308
8.90656787767204
8.91323040496082
8.91845172923219
8.9224748312757
8.92543263505388
8.92745841343459
8.9287244540273
8.92954691502526
8.93055045820038
8.93279844989938
8.93685805484872
8.93219460634542
8.9275900704045
8.92492403411752
8.92324039844594
8.9221369511671
8.92159987639302
8.92205084494848
8.92368711259217
8.93702516084207
8.91940519553535
8.80285311123426
8.81163578550628
8.82884495658768
8.84135351189328
8.84202900715893
8.83183445156143
8.81794588521455
8.80846316499484
8.80797546799531
8.81627493882987
8.82970332844097
8.84334417029124
8.85340136957382
8.85963499304206
8.86506039948174
8.87319660304466
8.88513358604168
8.89878295826367
8.91157925505424
8.92239380465336
8.9310901037566
8.93793195924226
8.94321762877923
8.94717161451219
8.95000178733023
8.95188652989596
8.95302489376352
8.95366462564897
8.95412530134235
8.95456523566113
8.95315618975528
8.95156093388696
8.95033826928829
8.94939370553609
8.94877916890384
8.94869039902438
8.9496687379919
8.95197391754078
8.9647189164528
8.94025792182755
8.80477534883929
8.81383644367091
8.83235909884064
8.84800381100718
8.8533517980762
8.8480643455849
8.83792297387295
8.8304693232271
8.83063467593814
8.83857657843692
8.8507063493262
8.8623695883952
8.87030801063059
8.87457527949242
8.87812688284637
8.88445195392505
8.8951205758437
8.90860067060518
8.92218959912179
8.9342483376104
8.94419336676051
8.95207092178483
8.95815280539661
8.96271468002022
8.9660327221921
8.96832766996543
8.96979976781082
8.97063567962032
8.9710184940246
8.97107758467559
8.97055335586204
8.96987052277992
8.96926149335632
8.96881890718933
8.96869516968622
8.96913150981448
8.97067363986004
8.97337809281622
8.98500601985125
8.95619144814905
8.80672011524274
8.81609071781116
8.83603505603147
8.85498502340016
8.86537994131994
8.86566274244629
8.86003616135747
8.85510903788344
8.85583765005303
8.86276906325213
8.87271112332217
8.88158541340113
8.88688083172019
8.889057520835
8.89095732409397
8.89576612342017
8.9051098096123
8.91787162566576
8.93147739788052
8.94404002908451
8.95465546178352
8.96313974031223
8.96967249880746
8.97453151800773
8.97803640891312
8.98045650395589
8.9820227898637
8.98293101531705
8.98335081364629
8.98342191831569
8.98319349899146
8.98285815233586
8.98257244436675
8.98247172236215
8.9827293216122
8.98359216094883
8.98557828924997
8.98840596176119
8.99881768234209
8.96658214244436
8.80998631958014
8.81967600075489
8.84108786653324
8.86341332714868
8.87910362310848
8.88549867699784
8.88506135624654
8.88307208502476
8.88420327442796
8.88943281725878
8.89629550701815
8.90161589250135
8.90379516010633
8.90373640123238
8.90410531609893
8.9076482977077
8.91578187306107
8.92759030998094
8.94070145711241
8.9532159662205
8.96404308791575
8.97281265030483
8.9795815340729
8.98458218417404
8.98813410542418
8.99053446483881
8.99204285097052
8.99287763568902
8.99322205169342
8.9932311430574
8.99302631713415
8.99275693806728
8.99256438755623
8.99259492146782
8.99302425011283
8.99409363358694
8.99628727681251
8.99895729668626
9.00805859310347
8.97270656605338
8.81486335846
8.82487902770449
8.84778390752118
8.87349747668107
8.89461941191849
8.90752922554418
8.91287067210007
8.91423575105408
8.9156550730553
8.91854629677409
8.92149799294804
8.92256005159627
8.92117323694895
8.91868552835134
8.9175444994203
8.91999638819682
8.92711068479227
8.93797048415205
8.95036137806999
8.96246197361407
8.9731473979342
8.98193603367339
8.98876821161201
8.99381904892245
8.99737607452022
8.99973510234145
9.00116580675708
9.00190095478187
9.00213719956598
9.00204217857606
9.00176032555429
9.00143583168987
9.00120970208044
9.00123203915517
9.00167642226368
9.00277512966991
9.00497673745851
9.00729705091783
9.01499241581025
8.97664667701684
8.82100977533676
8.83136939838581
8.85580013099776
8.88488186115994
8.91144057799752
8.9310510492809
8.94256742103942
8.94766814651764
8.94939818780364
8.94952641447034
8.9479395618914
8.94417509388419
8.93880508983535
8.93361311585376
8.93082736769038
8.9322081374494
8.93844230972188
8.94847623036871
8.96015217330634
8.97172488906889
8.98208821876419
8.99071808890883
8.99749501001804
9.00253036782903
9.00607296365994
9.00840215419376
9.00978371259755
9.01045388279579
9.01061562961395
9.01044336746226
9.01009032765588
9.00970152597083
9.00941942104171
9.00939496772013
9.00979708183979
9.0108484613176
9.01295890239501
9.0148545094232
9.0211110948672
8.97987372178571
8.8278373570248
8.83857131518025
8.86457525817092
8.89698236793755
8.9288458663997
8.95509063165941
8.97286618942736
8.98191036212298
8.98407608304703
8.98130894129275
8.97488868205551
8.96598015085213
8.95632473408172
8.94813675674661
8.94346467386767
8.94365098488327
8.94902666464863
8.95834099499238
8.96940817523559
8.98050833071113
8.99055340056041
8.99900002192764
9.0056915021622
9.01070139152908
9.0142417614374
9.01657043430601
9.01794430060605
9.01859692694138
9.01873245544732
9.01852805379109
9.01814055535046
9.01771596289377
9.01739743733071
9.01733504819705
9.01769122795566
9.01867816542734
9.02066347251931
9.02212584777566
9.02696151016607
8.98296411254058
8.834760889172
8.84590120331
8.87352365474077
8.90917982966315
8.94609914922169
8.97864525874052
9.00239981846506
9.01530854159491
9.01800459656201
9.01246676304884
9.0012810949684
8.98722785871408
8.97318746792995
8.96180264715765
8.95501261731908
8.95383563531725
8.95829460528022
8.96693580797393
8.97749652736246
8.98823382388502
8.99805638960703
9.00639966122883
9.01307419575655
9.01812320207111
9.02172907974865
9.02412923459368
9.02556731677391
9.02627113986036
9.02644405227246
9.02626434181516
9.02589086128138
9.02547064775673
9.02514733472207
9.02506978023064
9.02539327090127
9.02631918836918
9.02816899162801
9.02920996198045
9.03265365459868
8.98607411489184
8.84129539646055
8.85286323529593
8.88212458769981
8.92090513779496
8.96251039697254
9.00075296372963
9.02986803657967
9.04625664561055
9.049442599585
9.04140423094609
9.02582599064924
9.00693230401024
8.98864481654769
8.97402833207077
8.96499544321372
8.96233765297465
8.96582377186531
8.97381733341305
8.98395015839739
8.99442761177205
9.00413414132688
9.01247900591421
9.01923947376959
9.0244299460394
9.02820587968326
9.03078231678855
9.0323876018774
9.03324133210489
9.0335431670438
9.03347060513067
9.03318349779729
9.03282968732399
9.03255317549078
9.03250182263294
9.03282382739637
9.03370923415057
9.03543083868457
9.03607441587866
9.03816042169218
8.98923432235633
8.84705732495876
8.85906045101536
8.88993999567472
8.93163456747206
8.97739637598796
9.02050127469735
9.05408380838105
9.07331173011101
9.07681324117982
9.06659012639016
9.04718901846982
9.02399648345593
9.00181314326762
8.98410827275039
8.97284599380459
8.96868312171141
8.97119579550692
8.97859370451195
8.98838424553414
8.99870287868771
9.00839388255548
9.01683640606307
9.0237767754848
9.02920350860364
9.03324772783204
9.03610255602337
9.03797975671283
9.03908798013338
9.03962060563081
9.03975229401141
9.03964175377514
9.03943621311948
9.03927920836136
9.0393171861744
9.03969115797384
9.04057872054145
9.04220301326096
9.04249080931408
9.04327745315754
8.99229426996158
8.85175695146395
8.86417277960429
8.89656805524094
8.94083417969199
8.9900606953101
9.03701530855766
9.07398424461879
9.0952493764556
9.09880601061502
9.08672517115262
9.06416890423237
9.03736276015363
9.01178823944954
8.99128122878454
8.97791920564225
8.97230912280269
8.97390495056117
8.98079681460013
8.99035851638781
9.00063996810908
9.01043071935381
9.01907313037086
9.02628463393714
9.03203195453484
9.03642602539179
9.03964160731169
9.04187553472933
9.04332535929561
9.04417707354953
9.04460073431196
9.0447521417835
9.04477679546252
9.04481608152612
9.045014030179
9.04550406901531
9.04644912357899
9.0480249631668
9.04801142760453
9.04758778513651
8.99486884522272
8.85516443294614
8.86790287966964
8.9015881093786
8.9479386475906
8.99979329847534
9.04945905609243
9.08864081255416
9.11108048374379
9.11441555124137
9.10080130673718
9.07578955217196
9.04611924539059
9.01774153518284
8.99480617386696
8.97954538626185
8.97259261583141
8.97335569907301
8.97984715936492
8.98931092003121
8.99969921439242
9.00973218082089
9.01870406656374
9.02630031050924
9.03246702892749
9.03729803520221
9.04095378474552
9.04361973273981
9.04548465272484
9.04672819553784
9.04751598750099
9.04800061941906
9.04832474209765
9.04862727647874
9.04904886424454
9.04971514643973
9.05077172192856
9.05235335748942
9.05209569505536
9.05057224919231
8.99644290794571
8.85702229624004
8.86992333378977
8.90454921457291
8.95235594121803
9.00588156708181
9.05705731989228
9.09728469780422
9.12006391641479
9.12292181744414
9.10810303973123
9.08132009298496
9.04953463764832
9.01896456715352
8.99400858736846
8.97707665938183
8.96889647512535
8.96890468615073
8.9750868874525
8.98457418331733
8.99521583265571
9.00564971286971
9.01510815696832
9.0232355569324
9.02995322065029
9.03533723176897
9.03953539029408
9.04272438914867
9.04508689517683
9.04679836548319
9.04802152086035
9.04890669947483
9.04959425386572
9.05022031732272
9.05092267996793
9.05181979728757
9.05303722683423
9.05467780727305
9.05423111421886
9.05172976302642
8.9965005387831
8.85699559026801
8.86985102072795
8.90496558372427
8.95348464132697
9.00765643324855
9.05914410668364
9.09931499744169
9.12168681596183
9.12386891049208
9.10816950150296
9.08025513799771
9.04705083009071
9.01486915418455
8.98828873881984
8.96990657895433
8.96059688464945
8.95989616489007
8.96582272451789
8.97542125743365
8.98644090896889
8.99742799018537
9.00753971817248
9.01636728778669
9.02379808009177
9.02988547302551
9.0347627077096
9.03859769340963
9.04156803967379
9.04384651976103
9.04559453739175
9.04696159211723
9.04808695711343
9.04910476697903
9.05015005293679
9.05133644618817
9.05276692317317
9.0545238272475
9.0539450165289
9.05059456242465
8.99455561310968
8.85467484880201
8.86724387073417
8.90232235356723
8.95074035017067
9.00451936305627
9.05519805189174
9.09431607946915
9.11566699560442
9.11704755902324
9.10076034680015
9.07224836876591
9.03823521374655
9.00496778324482
8.97711587110371
8.95746875767192
8.94708462724253
8.9456695414764
8.95134050821201
8.96108993385832
8.97257375686448
8.984241789417
8.99516387020246
9.00486504553854
9.0131872307565
9.02015278473712
9.02587513605544
9.03051064923492
9.03423078586649
9.03720561264426
9.03959583235082
9.041551045686
9.0432105340195
9.04470757137154
9.04617496574587
9.04772367563283
9.04943220086641
9.05137534100616
9.05073147984473
9.04666984040471
8.99009416591973
8.84958841958035
8.86161501599325
8.89609461531069
8.94358125273893
8.99596985315235
9.04485853008135
9.08209396929857
9.10192072135938
9.102406320096
9.08574208817093
9.05708189705924
9.0227836462352
8.98887087489852
8.9600402109799
8.93924072947597
8.92776183937649
8.92554918553912
8.93089479754184
8.94077641548786
8.95276026619059
8.96520183714635
8.97707041396511
8.98781102286276
8.99720626486075
9.00523729977101
9.01199008518718
9.0176041900608
9.02224193920944
9.0260692437347
9.02924563518854
9.03192098397886
9.03423517982314
9.03632152631694
9.03831140220028
9.0403153144882
9.04238498374664
9.04460185805295
9.04397555603352
9.03935283626427
8.98250128916611
8.84122493449323
8.85245527674014
8.88577191121053
8.93153108284533
8.98162214217541
9.02787194638234
9.06258411720013
9.08052316774416
9.08003303334784
9.06318024067336
9.03467751745096
9.00042092619673
8.96617547488182
8.93656557030027
8.91468374594907
8.90206897889354
8.89893263501188
8.9037871514123
8.91364870952711
8.92607324029195
8.93932710862802
8.95224775287972
8.96417954411411
8.97482972358939
8.98412240571552
8.99210586683216
8.99889609568476
9.00464132011886
9.00950039617612
9.01363035947526
9.01718096558898
9.02029291166161
9.02310017127078
9.02573318520551
9.02830516907854
9.03083759186838
9.03343411166111
9.03292506017904
9.02790535761863
8.97103059320134
8.82905882566179
8.83925999183018
8.87088441911503
8.91419866100133
8.96121851314044
9.0041428005075
9.03584421621465
9.05163767693784
9.05010030623182
9.03312115338811
9.00494634589178
8.97097445699159
8.9365973609288
8.90631897887325
8.88333912746708
8.86942461263491
8.8650921724783
8.86917964160686
8.8788429291608
8.89160602486431
8.90560749327971
8.91958154200599
8.93279885270587
8.94486671534311
8.95562417800207
8.965056310818
8.97324419963367
8.9803143022275
8.98641246277444
8.99169059939898
8.99629751975444
9.0003746957235
9.00405726105122
9.00747516056484
9.01074896819656
9.01386469869613
9.01696556876122
9.01669203026417
9.01145565800207
8.95480669385666
8.81257962660812
8.82155652496931
8.85102570821738
8.89128981860241
8.93462170068286
8.97370682677687
9.00204992705299
9.01550956316413
9.01285294949822
8.99575297369402
8.96797080348236
8.9343670673732
8.89991519326011
8.86895015216808
8.8447259826621
8.82923512504687
8.82333639230148
8.82628528631048
8.835411633383
8.8482224720207
8.86281631180765
8.87783803794455
8.89240779323026
8.9060086540904
8.91837396565218
8.92945343038649
8.93927348264772
8.94791568132305
8.95549816909055
8.96215769716888
8.96803918782557
8.97328372591111
8.97802818478298
8.98240186863402
8.98653794171033
8.99038151248701
8.99413386787058
8.9942387176336
8.98898699667169
8.93281749799412
8.79132141391849
8.79892949754631
8.82587022955165
8.86261335645578
8.90180617237495
8.93670392852068
8.96146539067077
8.97245762396841
8.96859816231797
8.95131927777154
8.92389004059657
8.89061710734688
8.85603431735728
8.82425630944174
8.79854176057602
8.78108250661227
8.77308859616189
8.77431135056011
8.78234694158496
8.79475240486317
8.80961534584914
8.82547853139604
8.84132593008493
8.85651140478802
8.8706692881578
8.88362792326154
8.89533109886687
8.90581001095184
8.91513966448829
8.92344968005147
8.93087087742836
8.93753463153932
8.94357577260413
8.94912049064308
8.95431978268699
8.95907241725008
8.96365383632305
8.9643224376825
8.95928473994838
8.90386810313681
8.76488898720663
8.77104149639161
8.79518474389485
8.82808052022372
8.86284568913852
8.89335621751678
8.91441631864734
8.92285205187817
8.91769437655793
8.9001270972647
8.87293568651826
8.83987542189994
8.80502236014428
8.77222395420675
8.74469034553306
8.72476521766248
8.71399071945098
8.71267997835889
8.7188067866815
8.7300470100885
8.74453553514054
8.76076335760103
8.77760137442926
8.79426495121567
8.81024725273939
8.82524003298552
8.83907730766644
8.85170738091585
8.86314810204208
8.87347141338046
8.88277825217905
8.89118843268536
8.89883188848029
8.90582969921863
8.91235398727313
8.91825585502761
8.92389622099275
8.92537251519034
8.92082662834463
8.86648239950477
8.73297782280451
8.73764746027375
8.75883329957729
8.78769873257686
8.81789792301547
8.84394898011286
8.86127220386103
8.86709958991116
8.86054466292975
8.84254753986797
8.81543139503174
8.78241463853461
8.74710336927617
8.7130354911825
8.68331252200798
8.66036458918617
8.64601669637749
8.64118055095235
8.64431217820414
8.65327387508156
8.66633034010724
8.68200101872841
8.69910335841159
8.7167439273954
8.73427777915156
8.75124919305288
8.76735156385393
8.78240665346102
8.79632695256131
8.8090976117636
8.82075692273459
8.83138297359047
8.8410805660389
8.84995221839508
8.85818653185496
8.86559055940388
8.87261171080347
8.87523411677123
8.87154700833159
8.81868837189262
8.69538498459483
8.69860130877785
8.7167760777219
8.74156152287192
8.7671884312004
8.78881398901894
8.80243304907411
8.80563354431077
8.79758889292781
8.77900864770872
8.75178433676761
8.7186216966246
8.68265318279752
8.6470701845588
8.61480210229449
8.58828661615669
8.56955228299725
8.56010266275296
8.55895604303791
8.56421073387562
8.5743385298236
8.58798070630445
8.60399361361774
8.62145494522915
8.63963908537354
8.65797602016095
8.67602388864194
8.69345816231495
8.71004894387729
8.72564969415078
8.74018371307558
8.75363518602445
8.76603586738356
8.77743066746737
8.78799057960511
8.79747018789408
8.80638124450568
8.81066521034278
8.80835462560092
8.75757961413602
8.65201187792192
8.65385845697318
8.66906829313154
8.68984258321917
8.71100221781808
8.72832201017023
8.73832455132769
8.73891040800582
8.72929902603652
8.70998866753032
8.68247576337302
8.6489847193897
8.61218007750239
8.57487879131804
8.53977851828901
8.50924066810883
8.4853961667851
8.47028620143198
8.46353366981018
8.4634878566633
8.46886761622057
8.47850595617533
8.49138782179466
8.5066636965484
8.52363065330865
8.5416994941693
8.56037125105726
8.57922862402708
8.59792372701957
8.61617489650642
8.63376105593848
8.65052360975404
8.66635593423011
8.68117925839197
8.69505731481821
8.70765153600358
8.71941721499839
8.72631615168386
8.72616695061574
8.67820197384076
8.60246732127418
8.60310392545403
8.61550146049091
8.632449718317
8.64936083675282
8.66259934218811
8.66917172044477
8.66725668808599
8.65611212546884
8.63604537347383
8.60819302897969
8.57432980761441
8.53666337892602
8.49761811777118
8.45961174678047
8.42485390033396
8.39547248486979
8.37396409186027
8.36056455516536
8.35385467714726
8.35278735400873
8.3563985584283
8.3638372498635
8.37438545263132
8.38744362976297
8.40250264118653
8.41911989017579
8.43690632798809
8.45551453758735
8.47463518733974
8.49399140245489
8.51334609857455
8.53248825162976
8.55123091202639
8.56948306101055
8.58684145796141
8.60350565125366
8.61584135814742
8.62095578909912
8.57910261457392
8.54790622908142
8.5476159718464
8.55743498829174
8.57076886826959
8.58360488513352
8.59284954129037
8.59595107557492
8.59135059382462
8.57836123492308
8.55714602532469
8.52854258445331
8.49393364976976
8.45510814873177
8.41410622430773
8.37304115482218
8.33391977489359
8.29876570662406
8.27038432197442
8.24955653236655
8.23506537953998
8.22605475707497
8.22171703687584
8.22133378239627
8.22430260301368
8.23012716073223
8.23839462629691
8.24875387645702
8.26090090641954
8.27456667143958
8.2895132905969
8.30552720450625
8.32243176900515
8.34006755152868
8.35831968900622
8.37713137121215
8.39628390378937
8.41593971153487
8.43338657580441
8.44553668451381
8.41365002161
8.48633926521424
8.48547044935995
8.49317332256004
8.50338973188036
8.51262793908281
8.51828301277791
8.5182003238146
8.51106654433397
8.49626797848526
8.47387220027565
8.44448593826766
8.40917142337983
8.36935853551445
8.32674034683015
8.28313510435787
8.24033717350843
8.20024061789406
8.16582424924607
8.13830821386579
8.11666235195189
8.10017689556988
8.08815868501978
8.07998226684902
8.07512117944209
8.07314274185251
8.0736906279451
8.07646535616579
8.08120862059945
8.08768948010262
8.09569752844845
8.10503212279953
8.11551033813319
8.12694388473683
8.1391637100716
8.15201661434176
8.16521196820537
8.17869145438024
8.19001347954127
8.19577671011293
8.15579852417451
8.41690314462894
8.4156369869661