/*--------------------------------*- C++ -*----------------------------------*\
| =========                 |                                                 |
| \\      /  F ield         | OpenFOAM: The Open Source CFD Toolbox           |
|  \\    /   O peration     | Version:  2112                                  |
|   \\  /    A nd           | Website:  www.openfoam.com                      |
|    \\/     M anipulation  |                                                 |
\*---------------------------------------------------------------------------*/
FoamFile
{
    version     2.0;
    format      ascii;
    arch        "LSB;label=64;scalar=64";
    class       volScalarField;
    location    "0.01";
    object      T.gas;
}
// * * * * * * * * * * * * * * * * * * * * * * * * * * * * * * * * * * * * * //

dimensions      [0 0 0 1 0 0 0];

internalField   nonuniform List<scalar> 
5240
(
553.999320247214
554.006190966443
554.023312573358
554.048865745188
554.081803045003
554.120888047286
554.164780772573
554.212093461452
554.261459208643
554.311592420551
554.36133640592
554.409696512132
554.455858145263
554.499191319131
554.539243758603
554.575719152977
554.608158255826
554.63561507397
554.65802580038
554.676289096073
554.691162818927
554.703273301788
554.713132268101
554.721155185969
554.727678472245
554.732974509339
554.737264223047
554.740727348755
554.743510671817
554.745734571918
554.747498189506
554.748883496144
554.749958506449
554.750779825235
554.75139468348
554.751842582625
554.75215663875
554.752364697628
554.752490268571
554.752552635917
553.910152081692
553.917640299236
553.936822761014
553.965419045075
554.002305568194
554.04612898219
554.095433151568
554.148708936423
554.204466866263
554.261300895998
554.317938944649
554.373278271045
554.426404984566
554.476599442764
554.523329336156
554.566214400493
554.604666420024
554.637530584916
554.66457050897
554.686776393482
554.704995749114
554.719937807418
554.732188288134
554.742227361163
554.750447282807
554.757168228583
554.762651836844
554.767112452942
554.770726278994
554.773638716206
554.775970201626
554.777820823695
554.779273968828
554.780399213938
554.781254641676
554.781888719517
554.782341852302
554.782647689224
554.782834018627
554.782918234212
553.941993773871
553.949058988226
553.967670141232
553.995334998639
554.030974827202
554.073233212389
554.120669993812
554.171798572838
554.225159694001
554.279384387236
554.333243685559
554.385682872419
554.435839715091
554.483048459315
554.526830386977
554.56684254192
554.602574517297
554.633087678192
554.65815885868
554.678746035631
554.695656377009
554.709558449352
554.72099885651
554.730421288052
554.738184744484
554.744579637847
554.749841397242
554.754161645543
554.757697199409
554.76057720589
554.762908731598
554.76478109735
554.766269218222
554.767436172818
554.768335189505
554.769011202829
554.769502102644
554.769839768838
554.770050678028
554.770151043388
553.958487794401
553.965337058424
553.983600428001
554.010689525678
554.045581534554
554.086901835998
554.133214189741
554.183038894083
554.234930704684
554.287541405413
554.339669291829
554.390292696824
554.438587204182
554.483928056311
554.525876088672
554.564110017425
554.59818984284
554.627376637584
554.651413092956
554.671231991442
554.687607958766
554.701174814345
554.712444515989
554.721827775054
554.729653160906
554.736183680103
554.741630607434
554.746164732618
554.749925340052
554.753027274664
554.755566429511
554.757623953305
554.75926943466
554.760563280443
554.761558469967
554.762301834191
554.762834982494
554.763194984747
554.763414573835
554.763516787899
553.936305481758
553.943252794534
553.961883178216
553.989519262569
554.025163003895
554.06738343
554.114709798757
554.165625048946
554.218652403861
554.272418748045
554.325705358676
554.377481774567
554.426922642823
554.473408301748
554.516504144902
554.55587953547
554.59112265083
554.621577733651
554.646865607677
554.667920546415
554.685515104481
554.700277221616
554.712710979282
554.723218562651
554.732120238085
554.739671446069
554.746076883186
554.75150183146
554.756081133558
554.759926227946
554.763130617927
554.76577409
554.767925938883
554.769647406856
554.770993505981
554.772014359213
554.772756168175
554.773261907882
554.773571489803
554.773716493268
553.897505216495
553.90474747587
553.924141518508
553.952902858839
553.990019362969
554.033980042669
554.083257110924
554.136271977019
554.191493822387
554.247503989676
554.303048786206
554.35707407095
554.408741693217
554.457427236354
554.502691106991
554.544189627878
554.581540496322
554.614137422484
554.641446031583
554.664416420782
554.683833565649
554.700332119832
554.714419612828
554.726499824291
554.736893835769
554.745857758208
554.753597077232
554.760277968776
554.766036085699
554.770983322276
554.775213003679
554.778803865652
554.781823107947
554.784328733876
554.78637133536
554.787995456478
554.789240637223
554.790142024871
554.79072948283
554.791021335747
553.853714400697
553.861317890732
553.881602315966
553.911665188765
553.95045501182
553.996370963417
554.047817605139
554.103144751691
554.160759915784
554.219193390494
554.277153522903
554.333561898604
554.387568779723
554.438546484095
554.486051800233
554.529738937363
554.569277996922
554.604111167595
554.633539518048
554.658533313578
554.679891686905
554.698256173842
554.714137564691
554.727941082809
554.73998895077
554.750539048312
554.759799698032
554.767941026106
554.775103518619
554.781404399958
554.786942383202
554.791801235044
554.796052488816
554.799757528798
554.802969131391
554.805732490839
554.808086497761
554.810068527516
554.811722131089
554.813036951785
553.804426489149
553.81238940558
553.83358671002
553.865001977745
553.905539257501
553.953506907314
554.007238594241
554.065008404571
554.125158710809
554.186165406519
554.246696093103
554.305645759026
554.362150828693
554.415577496222
554.465477516139
554.511513459301
554.553419601666
554.590664059989
554.622382135679
554.649566571856
554.673030624167
554.693421718621
554.711252517473
554.726928197814
554.740770904686
554.753039681348
554.763946012788
554.773665484498
554.782346272855
554.79011520579
554.797082056814
554.803342615822
554.80898096805
554.814071326826
554.818679511184
554.822863267951
554.826670838137
554.830152502968
554.833457215928
554.836967730282
553.746215729043
553.754516169489
553.776631074901
553.809434490088
553.851793972638
553.901931017585
553.958111361038
554.018533076925
554.081471797951
554.1453451247
554.208774360529
554.270620801074
554.329998717737
554.386259387958
554.438942816025
554.487720006153
554.532379445428
554.572377322731
554.606687559115
554.636328043747
554.662129254584
554.684747295046
554.704698466571
554.722388373418
554.738138219584
554.752206147609
554.764803812647
554.776108663066
554.786272657851
554.795428205188
554.803692059504
554.811167798616
554.817947382002
554.824112341084
554.829735325794
554.834880692238
554.839592850558
554.843868090231
554.847867776362
554.853815803162
553.676735582333
553.685383075588
553.708463565692
553.742737399262
553.787043739913
553.839520540778
553.898369491406
553.961712795588
554.02775784993
554.094859502193
554.161586044492
554.226756227255
554.289451809072
554.348998584776
554.404915496659
554.456873556381
554.504696553965
554.547797552583
554.584993606076
554.617331513669
554.645665377931
554.670666706709
554.692861144163
554.712658605835
554.730380957173
554.746284619978
554.76057835194
554.773436585054
554.785008987478
554.79542698293
554.804807953305
554.813257759169
554.820872027191
554.82773671754
554.833929925845
554.839527183333
554.844586301539
554.849013742453
554.852624937201
554.860991016772
553.594467401759
553.603510932194
553.627647244908
553.663513792648
553.709930551521
553.764954841259
553.82672904642
553.893299884882
553.962805194518
554.033532257157
554.103988897879
554.172941327876
554.239427106564
554.302734852458
554.362351505582
554.417934556043
554.469318559319
554.515844118211
554.556179885124
554.591407036212
554.622413058609
554.64989592175
554.674401729003
554.696354915838
554.716086554084
554.733857714216
554.749878231527
554.764321200059
554.777333784815
554.789044978967
554.799570934139
554.809018445525
554.817486886156
554.825068440765
554.831848836106
554.837919654051
554.843384140144
554.848092874693
554.851053171918
554.86251725288
553.497746738184
553.50729508371
553.532636066114
553.570274004678
553.619019996805
553.676853318164
553.741862159432
553.812018085667
553.885388168248
553.960187110421
554.034854423057
554.108093146255
554.178884135353
554.246466330915
554.310282632001
554.369960139773
554.425315038045
554.475584330288
554.519301932291
554.557587668115
554.591373471378
554.621397020408
554.648239552389
554.672355335268
554.694099834014
554.713753044422
554.731538467618
554.74763804636
554.762203657528
554.775365740644
554.787239616905
554.797930078456
554.80753458709
554.816143944608
554.823839982041
554.830710911816
554.836907334163
554.842283520453
554.844496592096
554.860091221622
553.384397115293
553.394647007134
553.421430044388
553.461108998554
553.512493497267
553.573487072152
553.642128105324
553.716313243239
553.794037645921
553.873438493911
553.952879102209
554.030988545145
554.106678112715
554.179124054086
554.247712773202
554.31202246106
554.371816468516
554.426189249926
554.473564686907
554.515099007753
554.55177834575
554.584391639133
554.613568582373
554.639807854815
554.663504866169
554.684974639605
554.704470440783
554.722198452919
554.738329145478
554.753005942279
554.766351721671
554.778473748377
554.789467844756
554.799420608973
554.808402851012
554.816474385172
554.82381704046
554.830420599235
554.831643095382
554.852973521001
553.251740931605
553.262998834457
553.291578599643
553.333697327117
553.388156482457
553.452787806469
553.52558043815
553.604357012414
553.687039397166
553.771682948901
553.85656740456
553.940237733246
554.021523403647
554.099525248282
554.173561434069
554.243145039228
554.307952137578
554.366882147188
554.418278615601
554.463325306791
554.503072228651
554.538367639429
554.569898403567
554.598216468567
554.623766537537
554.646908642244
554.667936634754
554.687092735404
554.704578843516
554.720565249123
554.735197262626
554.748600168098
554.760883612419
554.772146751873
554.782471443814
554.791886076299
554.800562299415
554.809147612617
554.808433922614
554.838241089291
553.097602916396
553.110410772605
553.141440756674
553.186765151223
553.245089454793
553.314172477511
553.391936094886
553.476127627773
553.564590332729
553.655294884801
553.746432835214
553.836459596018
553.92411626608
554.008420887632
554.088617907669
554.164151271425
554.234558664214
554.298460304349
554.35426116833
554.403106678646
554.446122124867
554.484223094442
554.518158924221
554.548538516832
554.575858522839
554.600525975452
554.622877009745
554.643191612587
554.661705130253
554.678617186094
554.694098559843
554.708296324984
554.721337939766
554.733337523117
554.744398531652
554.754547479541
554.763762348779
554.774109888826
554.770361993224
554.80693479896
552.907190161599
552.920597225154
552.953084216327
553.000647592092
553.061931594274
553.134675628628
553.216777451776
553.305956479593
553.400009217974
553.496841653958
553.594561236759
553.691523575849
553.786358946648
553.877970704927
553.965494417877
554.0482671413
554.125536259053
554.195448064737
554.256769695899
554.310436451699
554.357608553918
554.399267551915
554.436228424562
554.469161490955
554.498619326339
554.525059285446
554.548862399296
554.57034845012
554.589787834052
554.607410818528
554.623414768184
554.637969688852
554.651222147811
554.663300062974
554.674327328878
554.68437993165
554.693041228714
554.704252133509
554.69601674769
554.73742654668
552.685827255859
552.699722887376
552.733605395135
552.783325835971
552.847542862317
552.923991414039
553.01057848401
553.105013747781
553.205064675637
553.308582002335
553.413591649121
553.518343979236
553.621345723721
553.721366316158
553.817408113286
553.908671058447
553.994090383702
554.071285083781
554.139213476877
554.198702008837
554.250941179024
554.296980067534
554.337706171787
554.373858596439
554.40605238409
554.434800831798
554.46053473733
554.483618110104
554.504360769733
554.523028329561
554.539850086078
554.555025273255
554.568727562122
554.581107161145
554.592307256455
554.60251595443
554.610802811369
554.623171512903
554.611146399891
554.656065910132
552.429130137968
552.443524014275
552.478795915311
552.53069399659
552.59794364112
552.678295182068
552.769687122363
552.869833101004
552.976483217413
553.087438738911
553.200644177835
553.31423797679
553.426589990102
553.5363158771
553.642261252243
553.743463259378
553.838508120679
553.924413891188
554.000225269004
554.06671479384
554.125106485633
554.176523489636
554.22193718181
554.26216767557
554.297904422184
554.32972772268
554.358127999497
554.383521969415
554.406265875777
554.426666122177
554.444987719029
554.461461052159
554.476287390832
554.489639365489
554.501658684425
554.512702734903
554.521131982356
554.535397740072
554.520638912879
554.568514384413
552.135995337356
552.150988103224
552.187771632805
552.242019199345
552.312542135843
552.397116852368
552.493728610482
552.600107284424
552.713997685039
552.833160519324
552.955463966361
553.078934072721
553.201797120268
553.322501134569
553.439715983658
553.552296220574
553.658448253048
553.754515522036
553.839529113294
553.914236260729
553.979900347459
554.037726046683
554.088778444906
554.133968771281
554.174070596312
554.20973990994
554.241534062743
554.269928251637
554.295329364879
554.318087341569
554.338504308512
554.356841835535
554.373327651644
554.388159744152
554.40144972494
554.413811047695
554.422630402464
554.439288658301
554.42220724898
554.473208200295
551.803965449831
551.819629397786
551.858048160018
551.914827017428
551.988867053133
552.077977457375
552.180205360489
552.293311904194
552.415053259048
552.543164339624
552.675448492932
552.809825127035
552.944375615645
553.07737021174
553.207284540103
553.332768559859
553.451612167258
553.559399046313
553.65504600631
553.739283921657
553.813419726738
553.878746578847
553.93643190029
553.987487074946
554.032778722855
554.07304679271
554.108922961281
554.140947409536
554.169583342274
554.195229175696
554.218228504878
554.23887778219
554.257433035603
554.274128771778
554.289009722434
554.30306866373
554.312410583117
554.331850573194
554.312539841194
554.366949885708
551.429050489638
551.445404493573
551.485513160649
551.544924413843
551.622634465862
551.71649674577
551.824639885035
551.944877401942
552.07500052521
552.21274095234
552.355856555317
552.502172976454
552.649630870464
552.796315838068
552.940490201054
553.080572307772
553.213886848795
553.335152913338
553.443066678883
553.538334754338
553.622307176748
553.696371203042
553.761805097227
553.81973036371
553.87111712107
553.916799417082
553.957492765369
553.993811086628
554.026281855276
554.055359087166
554.081434161901
554.104844072838
554.125874575783
554.144814123544
554.161587437736
554.177721592591
554.18769966866
554.210289105312
554.188748432495
554.246921791489
551.006683215956
551.023712223838
551.065496519574
551.127549028133
551.208972185819
551.307681886653
551.42191328685
551.549560219814
551.688480487748
551.836434191985
551.991162821853
552.150420799498
552.312020725687
552.473863019573
552.633980216282
552.790529629325
552.940311031468
553.077051893613
553.199109577607
553.30714098343
553.402531659648
553.486765818331
553.561240476847
553.627198098015
553.685724289095
553.737759111913
553.784113189398
553.825484529381
553.86247417374
553.89559992291
553.925307967094
553.951982637355
553.975938782745
553.997544144335
554.016531332892
554.035146351693
554.045882601974
554.071987910005
554.048186992359
554.110546790916
550.532210610451
550.54987733796
550.593261861417
550.657875467159
550.742940786047
550.846459374613
550.966802296417
551.101978044025
551.249950452568
551.408549719271
551.575541908983
551.748645823261
551.925571577167
552.104045294901
552.281861081099
552.456887996171
552.625333134484
552.779782599495
552.918119521227
553.040904427834
553.149539934715
553.245604652759
553.330619951051
553.405959812289
553.472838078012
553.532313994224
553.585306005025
553.632607992528
553.674905227582
553.71278875791
553.746767568442
553.777282145253
553.804673274653
553.829424014769
553.850983284587
553.872529612374
553.884174152149
553.914181787866
553.888096037607
553.955131153264
550.000943379267
550.019186916988
550.064029912327
550.131026117484
550.219532269276
550.32766180983
550.453954026522
550.596571907615
550.753632382675
550.923088090096
551.102784283912
551.290456111915
551.483754526034
551.680259714159
551.877533228214
552.073137037508
552.262614217987
552.437237631037
552.594258569958
552.734067043267
552.858048013342
552.967862581972
553.06515726881
553.151446414877
553.228084872028
553.296265277461
553.357028161066
553.411276827548
553.459793234282
553.503252940821
553.542236974461
553.577253750545
553.608663440001
553.637113117451
553.661656462324
553.686646155977
553.699396445548
553.733734258941
553.705373800564
553.777633437574
549.408121448354
549.42685226104
549.472934213367
549.542019340241
549.633610607467
549.74596120543
549.877812316704
550.027525265663
550.193423585376
550.37364497261
550.566182977528
550.76886004061
550.979333775
551.195091108846
551.413489954179
551.631783656333
551.844784186785
552.042260707914
552.220648861233
552.380057796482
552.521796232318
552.647580782555
552.759175399593
552.858239707572
552.946281243425
553.024640831422
553.094496850012
553.156877487613
553.21267586394
553.262665437236
553.307509790078
553.347800850258
553.383907208266
553.416702881337
553.444714751302
553.473737997659
553.487856892901
553.527011903849
553.49644672517
553.574532602716
548.748947716404
548.768043981821
548.81505756714
548.885807120372
548.979950638707
549.095909103099
549.232658574013
549.388804238429
549.562933892027
549.753441375205
549.958551437382
550.176264967944
550.40433853742
550.640249995666
550.881216000192
551.124209624273
551.363262070602
551.586439225041
551.789149988859
551.971065517123
552.133325423594
552.277651311587
552.405902383928
552.519880760779
552.62125503737
552.711528477774
552.792034088155
552.863942214599
552.928273709497
552.985915749529
553.037626208311
553.084100923562
553.125700745033
553.163605107085
553.1956632497
553.229405894937
553.2452408745
553.289775931652
553.257160389482
553.341720478781
548.018678908219
548.037984526118
548.085528021868
548.157375590123
548.253343874133
548.372047955084
548.512728390396
548.6742781869
548.855607599527
549.055442592897
549.2723329781
549.504568387808
549.750125116356
550.006593878023
550.271157341803
550.540582679895
550.808108062259
551.059906407854
551.290126993926
551.497788313129
551.68372036994
551.84956344552
551.997225950486
552.12863555918
552.245623011425
552.349865496502
552.442867362303
552.52595982906
552.600310131091
552.666937802413
552.726707961708
552.780446693491
552.828485277096
552.87240349827
552.909204459799
552.948469012342
552.96647529932
553.01704734274
552.982646303647
553.074373276141
547.21273449269
547.232058280884
547.279632522744
547.351863919784
547.448724141266
547.569044682569
547.712353674604
547.877870240987
548.064880913276
548.272519118
548.499759023986
548.745304011895
549.00749771631
549.284206601229
549.572741628202
549.869802595592
550.167887007458
550.451127483418
550.712176408768
550.949120589494
551.162277146254
551.353066332993
551.523361585003
551.675174406548
551.810484457918
551.931147385466
552.038853303223
552.135113508521
552.221262053262
552.298472636867
552.367731789695
552.43002924047
552.485639117941
552.536653245111
552.579045264376
552.624777565049
552.645547324439
552.702929055875
552.66714732652
552.766783365729
546.326806795284
546.345922950753
546.392932270416
546.464685774003
546.561297388956
546.681831008321
546.826115495315
546.9937240978
547.18436308193
547.397640600564
547.633051413303
547.889843688395
548.16689585527
548.462551262101
548.7744716757
549.099508682189
549.429568773307
549.746688177911
550.04181704029
550.311771697702
550.556077552341
550.775723673521
550.972405773616
551.148135684794
551.305002211495
551.445029157513
551.570099980958
551.681923469189
551.782021726896
551.871747681232
551.952224599927
552.024647312632
552.089199959302
552.148614295498
552.197640794872
552.25096484295
552.275265003696
552.340371889121
552.303789112748
552.412138448301
545.356970318444
545.375620515161
545.421378511798
545.491652509286
545.586675245689
545.705750541866
545.849008057198
546.016388189632
546.208043518241
546.424107271793
546.664676740483
546.929668696726
547.218669867569
547.530728356796
547.864134954383
548.216201361179
548.578522312213
548.931137399285
549.263182876853
549.569833676389
549.849467710189
550.102340416581
550.329742404084
550.533534983541
550.715829093799
550.87877694867
551.024446862541
551.154755598129
551.271432767894
551.376038165523
551.469848036713
551.554312512462
551.62948894577
551.698891462508
551.755849905948
551.818114671622
551.846937291542
551.920862890786
551.884277375926
552.002228517449
544.299789321556
544.317686726269
544.361427594953
544.429096755664
544.521010672596
544.636710531474
544.776611222902
544.94101420809
545.130521827958
545.345816532603
545.587652786925
545.856715350941
546.153457914278
546.477865460242
546.829172403963
547.205540096825
547.598681425443
547.986967121843
548.357790317819
548.704345875705
549.023457255156
549.314246887514
549.577262372151
549.813962253988
550.026312766072
550.216499268027
550.386732147886
550.53912843082
550.675636631099
550.798050928142
550.907816751066
551.00669842147
551.094588083433
551.175936006648
551.242459756103
551.31530425017
551.349935688204
551.434000186048
551.398487106072
551.527048044707
543.152419393373
543.169254695059
543.210150425303
543.27399089999
543.361129364261
543.471330811162
543.605262734523
543.763559595599
543.947248861701
544.157551814443
544.395894420571
544.663785115666
544.962661865689
545.293649395145
545.657239241854
546.052879934128
546.472977474689
546.89485029676
547.304505877092
547.692963089933
548.055106147705
548.388458063113
548.692366209412
548.9674982249
549.215384295033
549.438049363424
549.637734536963
549.81670728193
549.977123499443
550.121031218943
550.250057922396
550.366347821778
550.469591253739
550.565334363765
550.643510082986
550.728957139839
550.771076223168
550.866896199641
550.833888764126
550.97424069259
541.912696676284
541.92814609562
541.965329436233
542.02405286416
542.104648199382
542.20707972602
542.332217909709
542.480979248277
542.654761034106
542.855272745582
543.084575219079
543.344994437831
543.639000181047
543.968989296192
544.336968062145
544.744094178728
545.184138947806
545.634293685762
546.079912192337
546.509931972602
546.917071367462
547.296816040217
547.646778186504
547.966301095455
548.256018851495
548.517444935864
548.752613284228
548.963802589882
549.153308159135
549.323422194739
549.475953190405
549.613490901969
549.735492846322
549.848757978023
549.941300122363
550.041897027207
550.093719467441
550.203312695741
550.174720480794
550.32829979448
540.579208005385
540.592943223155
540.625536021749
540.67783148325
540.750071929624
540.842386529795
540.955783887277
541.091390183948
541.250887268652
541.436380441556
541.650472180936
541.896225168173
542.177094210867
542.496768570146
542.858906359442
543.266690858102
543.715930512639
544.184870423407
544.659335112987
545.126708563697
545.577661005876
546.005412860902
546.405364916306
546.77492435801
547.113197931465
547.420625847694
547.69859204897
547.949076930224
548.174322082628
548.376773984564
548.558376127411
548.722208082475
548.867468751272
549.002348503273
549.112870112396
549.231909349815
549.296409370421
549.422359668112
549.400748953002
549.569375459334
539.151335392513
539.163035504518
539.190182023694
539.234764649073
539.296860284794
539.376720769892
539.475416393873
539.594193412812
539.734907463721
539.899929380784
540.092255045031
540.315524623953
540.57402299502
540.872608503855
541.216547578386
541.611159687026
542.054825276119
542.528137693982
543.018798686365
543.51365720236
544.001967732952
544.474907837322
544.925503801034
545.348744611074
545.741527522069
546.102470470501
546.431604998564
546.730032455543
546.999508052369
547.242356514438
547.460485778553
547.657426799077
547.832077822161
547.994106387822
548.12756281016
548.269448613955
548.350717591222
548.496448440975
548.485331330809
548.671417420876
537.62926808961
537.638634361066
537.659539775378
537.69520471902
537.74545932519
537.810631115481
537.891769207329
537.990139618533
538.107643623566
538.24675877087
538.410680974516
538.603398736443
538.829766652206
539.095534842772
539.40731715426
539.772391780255
540.191967390234
540.650181903158
541.138038540044
541.643243198539
542.154813688485
542.662739958478
543.158129629902
543.633562231464
544.083322025636
544.503496620322
544.89189902117
545.24787186199
545.571897268377
545.865555240886
546.130263544201
546.369733290922
546.58241447738
546.779389309607
546.942854094349
547.113756147318
547.217625215137
547.387885822147
547.392214304251
547.59912741512
536.013973841229
536.0207500883
536.034726276013
536.060407486263
536.097293180248
536.145738939682
536.206690032355
536.281329643752
536.371470130877
536.479522458104
536.608661621221
536.76294620826
536.947457028019
537.168423378082
537.433332021008
537.750922029076
538.125112093412
538.544466216879
539.004362210963
539.49480581453
540.006081132285
540.528415025791
541.052216084472
541.568507821668
542.069330851397
542.548097035323
542.999806139666
543.421134475311
543.810236316565
544.16689543707
544.49111679153
544.786028481801
545.04915660969
545.29253118948
545.496620359768
545.705738392564
545.840967641354
546.042779767158
546.069865296749
546.302610007572
534.307115175562
534.311122863869
534.317648292217
534.332483237161
534.354715082547
534.384685376107
534.423160862691
534.471146525861
534.530237358406
534.602606751504
534.691182986301
534.799797899646
534.933371506114
535.09811306171
535.301746921097
535.553695492177
535.860091070857
536.21435775027
536.616632122313
537.060281046725
537.538214918178
538.042461619539
538.564428349877
539.095253293948
539.626167705666
540.148910109001
540.656109176313
541.141622711128
541.600605240638
542.029972384569
542.427079496461
542.793091690816
543.123567246173
543.430145385919
543.691392091624
543.953457482045
544.134266487619
544.379034102007
544.440475493486
544.707099680717
532.510882336152
532.512100722784
532.510913427793
532.514319491105
532.520929607626
532.53104547118
532.54519770374
532.5641344959
532.589123447515
532.62194838885
532.665084097309
532.721854642397
532.796638277731
532.895108782694
533.024528421401
533.194062489146
533.411285632457
533.674478558447
533.988092324595
534.349205093324
534.754077465034
535.197597032138
535.673609663534
536.175162802597
536.694702904869
537.224356396284
537.756252663571
538.282888429626
538.797308545085
539.293749577067
539.766546297738
540.213744614383
540.627877858377
541.017905808162
541.359975715249
541.698591120391
541.949808587895
542.258736872075
542.375736255653
542.690941370011
530.6273313141
530.62609777592
530.617329960634
530.609080292328
530.599485943067
530.588821817869
530.577353750086
530.5655210871
530.55418433578
530.544619698484
530.538682513838
530.53895628236
530.548951811407
530.57335167511
530.618312343655
530.691813678284
530.802010019586
530.951780445562
531.148769422963
531.39337368254
531.68508601905
532.021759902172
532.400131021298
532.81605485111
533.264576800473
533.740056391226
534.236346904641
534.747035630992
535.265572829281
535.785817650934
536.301155726459
536.80768887076
537.296268322954
537.772058416716
538.21036251271
538.649165816853
539.006278331029
539.417775918548
539.636790116884
540.039377438636
528.679696950404
528.675637494471
528.658200171738
528.636517470497
528.608468361809
528.574376721228
528.534239576116
528.488150850928
528.436502505729
528.379963275402
528.319629767444
528.25714858245
528.194888536029
528.136155964113
528.085460758885
528.04883884687
528.034238734759
528.048785878643
528.101949635916
528.196714196216
528.335195548194
528.517551457574
528.742849944189
529.009420708842
529.31488821363
529.656215265583
530.029790761266
530.431562612886
530.857118312778
531.302052014856
531.761380454816
532.231804079802
532.706105057647
533.18726058975
533.656286741453
534.141015419787
534.576988917734
535.07300965747
535.418583874054
535.963184079031
526.53048280539
526.538774950151
526.528105909234
526.5079461407
526.476061893243
526.433015196541
526.378646231417
526.312823976746
526.235584859221
526.147103325577
526.04783495252
525.938611115278
525.820782332517
525.696397831128
525.568424780203
525.441039791609
525.321604061544
525.220183258917
525.147270890524
525.107707089865
525.105327800384
525.141667370671
525.217163381511
525.331599967262
525.484140996052
525.673349541162
525.897236274368
526.153329078305
526.438725944097
526.750307372637
527.084369870599
527.438063670175
527.805689864683
528.188038953853
528.570673053602
528.970637217099
529.339677258046
529.752754888911
530.038837877011
530.524706130249
524.242740172528
524.261963707489
524.256467461375
524.236115545784
524.198459329675
524.144240904719
524.073112228443
523.984692496347
523.878629626606
523.754560746359
523.612242578942
523.451611634585
523.272888710735
523.076707787647
522.864254948935
522.637522053042
522.403096642209
522.17398081674
521.961365315739
521.771620721498
521.609770975222
521.478223653888
521.378251669757
521.310498619537
521.275027816236
521.271340222772
521.298405327562
521.354694445881
521.438223988145
521.546674204086
521.677187298257
521.827290389876
521.99247229439
522.1725358697
522.356587853034
522.556127314555
522.734790674897
522.950711858579
523.062548431976
523.296020463786
521.788071740159
521.817577441954
521.817341532521
521.797239430524