/*--------------------------------*- C++ -*----------------------------------*\
| =========                 |                                                 |
| \\      /  F ield         | OpenFOAM: The Open Source CFD Toolbox           |
|  \\    /   O peration     | Version:  2112                                  |
|   \\  /    A nd           | Website:  www.openfoam.com                      |
|    \\/     M anipulation  |                                                 |
\*---------------------------------------------------------------------------*/
FoamFile
{
    version     2.0;
    format      ascii;
    arch        "LSB;label=64;scalar=64";
    class       volScalarField;
    location    "0.01";
    object      T.particles;
}
// * * * * * * * * * * * * * * * * * * * * * * * * * * * * * * * * * * * * * //

dimensions      [0 0 0 1 0 0 0];

internalField   nonuniform List<scalar> 
5240
(
553.999517498497
554.006386234748
554.023502888884
554.049048635856
554.081976306143
554.121049790471
554.164929454095
554.212227898742
554.261578580489
554.311696252711
554.361424544853
554.409769090074
554.455915540098
554.499234112231
554.53927269351
554.575735099266
554.608162289583
554.635608699492
554.658010661249
554.676266598278
554.691134157654
554.703239489648
554.713094161518
554.721113508616
554.727633835272
554.732927428552
554.737215133393
554.740676616496
554.743458604755
554.745681428025
554.747444184206
554.748828808481
554.749903284318
554.750724189795
554.751338732856
554.751786394968
554.752100274698
554.752308202194
554.752433672465
554.752495959343
553.91015292159
553.917641140403
553.936823609688
553.965419904134
554.002306438989
554.046129864383
554.095434043
554.148709833106
554.204467762569
554.261301785041
554.317939818817
554.373279122544
554.426405805865
554.476600226882
554.523330076868
554.566215092565
554.604667060024
554.637531173066
554.664571048554
554.686776888549
554.704996204043
554.719938226642
554.732188675956
554.742227721642
554.750447619693
554.757168545279
554.762652136394
554.767112738033
554.770726551966
554.77363897907
554.775970456086
554.777821071169
554.779274210471
554.780399450667
554.781254874187
554.781888948302
554.782342077663
554.782647911276
554.782834237955
554.782918469509
553.94199570092
553.949060903586
553.967672027724
553.995336842483
554.030976616776
554.073234938408
554.120671649218
554.171800152578
554.22516119479
554.279385807399
554.333245024938
554.385684132254
554.43584089776
554.483049567942
554.526831425052
554.566843513122
554.602575426144
554.633088531586
554.65815966455
554.678746800904
554.695657107679
554.709559150586
554.720999532762
554.730421943167
554.738185381779
554.744580260191
554.749842007108
554.754162245064
554.757697790416
554.760577789952
554.76290931005
554.764781671323
554.766269788668
554.767436740532
554.768335755145
554.769011766935
554.769502665653
554.769840331101
554.770051239829
554.770151605168
553.958489415353
553.965338676033
553.983602036826
554.010691121482
554.045583113855
554.086903395942
554.133215727791
554.183040407698
554.234932191162
554.287542861957
554.339670715777
554.390294085875
554.438588556445
554.483929370163
554.525877362582
554.56411125
554.598191033534
554.627377788231
554.651414207137
554.671233072855
554.687609011024
554.701175840873
554.712445519975
554.721828759433
554.729654128359
554.736184633054
554.741631548065
554.746165662875
554.749926261656
554.753028189131
554.755567338161
554.757624857276
554.759270334929
554.760564177836
554.76155936518
554.7623027278
554.762835874973
554.763195876477
554.763415465121
554.76351767899
553.93630746762
553.943254777637
553.961885152562
553.989521223479
554.025164947502
554.067385353075
554.11471169832
554.165626921893
554.218654246799
554.272420557401
554.325707130996
554.377483506787
554.426924332355
554.473409946315
554.516505742347
554.555881083801
554.591124149072
554.621579183712
554.646867013625
554.667921912519
554.685516434955
554.700278520479
554.7127122503
554.723219809314
554.732121463598
554.739672653352
554.746078074884
554.751503009951
554.756082300963
554.759927386147
554.763131768577
554.765775234544
554.767927078572
554.769648542762
554.770994639016
554.772015490141
554.772757297632
554.773263036386
554.77357261777
554.773717621041
553.897507579106
553.904749836134
553.92414386961
553.952905195422
553.990021680538
554.033982337392
554.083259379183
554.136274215015
554.191496025986
554.247506154548
554.303050908164
554.357076146252
554.408743718667
554.457429209137
554.502693024463
554.544191487603
554.581542297031
554.614139166251
554.641447723021
554.664418064748
554.683835166957
554.700333683093
554.714421142383
554.726501324182
554.736895309725
554.745859209649
554.753598509269
554.760279384225
554.76603748709
554.77098471187
554.775214383484
554.778805237443
554.78182447328
554.78433009411
554.786372691672
554.787996809877
554.789241988566
554.790143374878
554.79073083209
554.791022684757
553.853717135798
553.861320623977
553.881605039807
553.911667897195
553.95045769968
553.996373626184
554.047820238451
554.103147350958
554.160762476066
554.219195906672
554.277155990037
554.333564312261
554.387571136084
554.438548779812
554.48605403221
554.52974110277
554.569280094231
554.604113199049
554.633541488764
554.658535228948
554.679893552289
554.698257994394
554.714139345285
554.727942828003
554.739990664789
554.750540735044
554.759801361028
554.767942668591
554.775105143505
554.781406009856
554.78694398045
554.791802821721
554.796054066771
554.799759099667
554.802970696622
554.805734051712
554.808088055407
554.810070082936
554.811723685167
554.813038505328
553.804429592331
553.812392507453
553.833589802377
553.865005053945
553.905542311675
553.953509934155
554.007241588535
554.065011360853
554.125161623279
554.186168269254
554.246698900421
554.305648505815
554.362153510535
554.415580109271
554.465480056908
554.511515924637
554.553421989829
554.590666373391
554.622384379896
554.649568752748
554.67303274757
554.69342379017
554.711254542519
554.726930181377
554.740772851436
554.753041595592
554.763947898468
554.773667345199
554.782348111812
554.790117025906
554.79708386068
554.803344405742
554.808982746057
554.814073094712
554.818681270518
554.822865020106
554.8266725843
554.830154244182
554.833458953204
554.836969463946
553.746219194892
553.754519634559
553.776634530415
553.809437928802
553.851797387953
553.901934403344
553.958114711115
554.018536384945
554.081475057258
554.145348328603
554.208777502658
554.270623875694
554.330001719884
554.386262313343
554.438945660832
554.487722766963
554.532382120317
554.572379914244
554.606690073198
554.636330486624
554.662131632465
554.68474961395
554.704700732235
554.722390591245
554.738140394617
554.752208284514
554.764805915705
554.776110736177
554.786274704537
554.795430228613
554.803694062487
554.811169783657
554.817949351301
554.824114296569
554.829737269144
554.834882624907
554.83959477379
554.843870005106
554.847869684225
554.853817703447
553.67673940446
553.685386897354
553.708467377833
553.742741193997
553.787047509928
553.839524279065
553.898373190928
553.961716449087
554.027761449955
554.094863041364
554.161589515836
554.226759624495
554.289455126757
554.349001818222
554.404918641762
554.456876609496
554.504699512992
554.547800420155
554.584996388409
554.617334217233
554.645668009191
554.670669271951
554.692863649402
554.712661056763
554.730383359125
554.746286977915
554.760580670441
554.773438868314
554.785011239314
554.795429206791
554.804810152293
554.813259936056
554.820874184441
554.827738857341
554.833932050131
554.839529293808
554.844588399692
554.849015829565
554.852627015233
554.860993084524
553.59447157335
553.603515103601
553.627651406448
553.663517936074
553.709934668863
553.764958924709
553.826733088095
553.89330387672
553.962809128371
554.033536125057
554.103992692351
554.172945042186
554.239430734845
554.302738389676
554.362354947373
554.41793789856
554.469321800305
554.515847260362
554.556182934847
554.591410000125
554.622415943313
554.64989873368
554.674404474334
554.69635760044
554.716089183488
554.733860293599
554.749880765707
554.764323693489
554.777336241592
554.789047402837
554.799573328509
554.809020813477
554.817489230469
554.825070763933
554.831851140358
554.837921941376
554.84338641229
554.848095133095
554.851055419213
554.862519487096
553.49775125242
553.507299597563
553.532640569516
553.570278488995
553.619024453498
553.676857738732
553.741866535262
553.812022408026
553.885392428416
553.960191299963
554.034858534103
554.108097171709
554.178888069008
554.24647016744
554.31028636681
554.369963768846
554.425318559002
554.475587745886
554.519305249072
554.557590892757
554.591376610516
554.621400080504
554.648242539654
554.672358255626
554.694102693074
554.713755847468
554.731541219608
554.747640751923
554.762206320968
554.775368365945
554.78724220774
554.797932638194
554.807537118808
554.816146451106
554.823842465853
554.830713375227
554.836909779203
554.842285948687
554.844499006949
554.860093620347
553.384401965459
553.394651856219
553.421434881936
553.461113815621
553.512498284859
553.57349182122
553.642132806693
553.716317887672
553.794042224274
553.873442997413
553.952883522708
554.030992875286
554.106682346039
554.179128185037
554.247716797018
554.312026373593
554.3718202673
554.426192937791
554.473568270489
554.51510249373
554.551781740703
554.58439494945
554.613571814196
554.639811014006
554.663507958304
554.684977669964
554.704473414349
554.722201374386
554.738332019248
554.753008772472
554.76635451213
554.778476502674
554.7894705662
554.799423300619
554.808405515671
554.816477025419
554.823819658625
554.830423196963
554.831645676965
554.852976083174
553.251746111094
553.263004011561
553.291583763491
553.333702468539
553.388161592123
553.452792874955
553.525585455916
553.604361969901
553.687044284978
553.771687758069
553.856572126765
553.940242360982
554.021527930302
554.099529668156
554.173565742286
554.243149231557
554.307956211514
554.366886105648
554.418282465291
554.463329054352
554.503075880565
554.53837120195
554.569901882699
554.598219870049
554.623769866842
554.646911904575
554.667939835048
554.687095878332
554.704581933489
554.720568290293
554.735200258894
554.748603123118
554.760886529609
554.772149634415
554.782474294672
554.791888898237
554.800565095019
554.809150383404
554.808436673798
554.838243817606
553.097608418674
553.110416270515
553.141446238944
553.186770608514
553.245094877542
553.314177856103
553.391941419615
553.47613288895
553.56459552087
553.655299990876
553.746437850857
553.836464513673
553.924121079082
554.008425590219
554.088622494918
554.164155739071
554.234563009748
554.29846453077
554.354265282418
554.403110687013
554.446126033894
554.484226910248
554.518162652672
554.548542163539
554.57586209317
554.600529474529
554.622880442451
554.643194983559
554.661708443887
554.678620446541
554.694101771013
554.708299490546
554.721341063151
554.733340607517
554.744401580025
554.754550494636
554.763765333285
554.774112843827
554.770364924241
554.806937703168
552.907195988925
552.920603047063
552.953090021229
553.000653370465
553.061937336556
553.134681325191
553.216783092949
553.305962055754
553.400014719717
553.496847072326
553.594566563442
553.691528803329
553.786364068271
553.877975714927
553.965499311312
554.048271913881
554.125540908224
554.195452593424
554.256774110804
554.310440759242
554.357612760206
554.399271662766
554.436232445539
554.469165427398
554.498623183383
554.525063068026
554.548866112153
554.570352097794
554.589791420877
554.607414348626
554.623418245459
554.637973116985
554.651225530255
554.663303402949
554.674330629356
554.684383195321
554.693044458407
554.704255329947
554.696019915503
554.737429686964
552.685833404587
552.699729030786
552.73361152143
552.783331935621
552.847548925902
552.923997432089
553.010584447075
553.105019646478
553.20507050079
553.308587745184
553.413597301506
553.518349533748
553.621351173779
553.721371656026
553.817413338016
553.908676163711
553.994095366826
554.071289947441
554.139218227493
554.198706652463
554.250945721359
554.296984513981
554.337710527518
554.373862866449
554.406056573227
554.434804944776
554.460538778728
554.483622084354
554.50436468111
554.523032182166
554.539853883822
554.55502901984
554.568731261027
554.581110815599
554.592310869408
554.60251952838
554.610806349175
554.623175014522
554.611149867827
554.656069353034
552.429136590195
552.443530461213
552.478802345033
552.530700399629
552.597950008228
552.678301504
552.769693389975
552.869839305243
552.976489349425
553.087444790222
553.200650140521
553.31424384363
553.426595754661
553.536321533746
553.642266796078
553.743468686065
553.838513427425
553.924419080371
554.000230346692
554.06671976569
554.125111356935
554.176528265394
554.221941866837
554.262172274554
554.297908939725
554.329732163302
554.358132367641
554.383526269425
554.406270111874
554.426670298433
554.444991839337
554.461465120201
554.476291410038
554.489643338988
554.501662615002
554.51270662457
554.521135833658
554.535401551841
554.52064268297
554.568518134449
552.136002075426
552.150994835999
552.187778348307
552.242025888218
552.312548789024
552.397123460874
552.493735165518
552.600113777325
552.714004107342
552.833166862915
552.955470223635
553.078940236722
553.201803184779
553.322507094123
553.439721833453
553.552301956287
553.658453871755
553.754521025765
553.839534507698
553.914241551031
553.979905538527
554.037731143142
554.088783451237
554.133973691901
554.174075435606
554.209744672272
554.241538752439
554.269932872961
554.295333921998
554.318091838511
554.338508749125
554.356846223431
554.373331990132
554.388164036133
554.401453972869
554.413815252743
554.422634566351
554.439292778299
554.422211314702
554.473212255182
551.803972456439
551.819636399112
551.858055144099
551.914833975066
551.98887397546
552.077984335688
552.180212186357
552.293318669365
552.415059955491
552.543170959647
552.675455029309
552.809831573145
552.944381965551
553.077376460194
553.207290682437
553.332774591781
553.451618085707
553.559404852925
553.655051706267
553.739289519714
553.813425227335
553.878751986239
553.936437218654
553.987492308457
554.032783875713
554.073051869141
554.108927965514
554.14095234576
554.169588214596
554.195233988083
554.218233261098
554.238882485732
554.257437689564
554.274133378675
554.289014284187
554.303073180239
554.312415054574
554.331854994801
554.312544189693
554.366954238554
551.429057747947
551.445411746654
551.485520396628
551.544931623727
551.622641640997
551.716503877736
551.824646965765
551.944884423599
552.075007480213
552.212747833447
552.355863355729
552.502179689934
552.649637491408
552.796322361488
552.940496622449
553.0805786229
553.213893054455
553.335159010746
553.443072672704
553.538340648837
553.622312975931
553.696376910799
553.761810717451
553.819735900356
553.871122578179
553.91680479876
553.957498075755
553.99381632984
554.02628703535
554.05536420799
554.081439227127
554.104849085767
554.125879539206
554.144819039406
554.161592307176
554.177726413746
554.187704439326
554.210293818032
554.188753045711
554.24692643175
551.006690709693
551.023719712454
551.065503991356
551.127556474342
551.20897959803
551.307689256737
551.421920607093
551.549567482785
551.688487686309
551.836441319352
551.991169871679
552.150427765964
552.312027603555
552.473869804154
552.633986903266
552.790536214536
552.940317511573
553.077058269395
553.199115853187
553.307147162565
553.402537745904
553.486771815245
553.561246388039
553.627203927241
553.685730040249
553.737764788994
553.784118796461
553.82549007047
553.862479652812
553.89560534375
553.925313333197
553.951987951771
553.975944047856
553.997549361307
554.016536501806
554.035151468382
554.045887660841
554.071992900276
554.048191848217
554.110551705367
550.532218323953
550.549885046493
550.593269553506
550.657883134364
550.742948420189
550.84646696786
550.966809841396
551.10198553369
551.249957880209
551.408557078556
551.575549194018
551.748653028664
551.925578698091
552.104052326976
552.281868020233
552.456894838276
552.625339876108
552.77978924099
552.918126066158
553.040910879444
553.149546296132
553.245610927172
553.330626141818
553.405965922974
553.472844112372
553.532319956157
553.5853118985
553.632613821508
553.674910995932
553.712794469286
553.746773226146
553.777287752011
553.804678832337
553.829429523546
553.850988743185
553.872535013759
553.884179486249
553.91418703988
553.888101111272
553.955136326885
550.000951297484
550.019194830431
550.064037809821
550.131033990926
550.219540110754
550.327669611816
550.453961781972
550.596579609849
550.753640025386
550.923095667386
551.102791790334
551.290463542524
551.483761876387
551.680266980225
551.877540406138
552.07314412331
552.262621208123
552.437244525438
552.59426537164
552.734073754966
552.85805463775
552.967869121935
553.065163727428
553.151452795528
553.22809117833
553.296271513207
553.357034330136
553.411282933813
553.459799281496
553.503258932489
553.542242913653
553.577259639591
553.608669280163
553.637118907677
553.661662199684
553.686651830004
553.699402040592
553.73373975543
553.705379065667
553.777638854321
549.408129556846
549.426860364986
549.472942301943
549.542027405714
549.63361864221
549.745969202226
549.87782026883
550.027533166786
550.19343142957
550.373652754387
550.56619069187
550.768867683003
550.979341341403
551.195098595577
551.41349735764
551.631790972678
551.844791412405
552.04226784235
552.220655906968
552.380064755754
552.521803107394
552.647587575944
552.759182114136
552.858246346457
552.946287810128
553.024647329623
553.094503283489
553.156883860133
553.212682179129
553.262671698421
553.307516000059
553.3478070109
553.383913320132
553.416708941934
553.44472075575
553.473743931514
553.487862733857
553.527017626809
553.496452154957
553.57453824615
548.748956001328
548.768052262449
548.815065833043
548.885815364206
548.979958853147
549.095917281247
549.232666709463
549.388812325179
549.562941924507
549.753449348315
549.958559346511
550.176272808992
550.404346306746
550.640257689936
550.881223616079
551.124217158094
551.363269518718
551.58644658664
551.789157265912
551.971072711397
552.133332536941
552.27765834618
552.405909342353
552.519887646025
552.621261852764
552.71153522687
552.792040774616
552.86394884207
552.928280281459
552.985922269103
553.037632677998
553.084107344694
553.125707117387
553.163611426528
553.195669509128
553.229412075425
553.245246946081
553.28978186296
553.257165957803
553.341726332545
548.018687356313
548.037992970178
548.08553645189
548.157383999168
548.253352255189
548.372056301579
548.51273669624
548.674286446408
548.855615807469
549.055450744533
549.272341069205
549.504576414675
549.750133075727
550.006601766917
550.271165157176
550.540590418249
550.808115719968
551.059913983793
551.290134489591
551.497795729838
551.683727709146
551.849570709067
551.997233140701
552.128642678849
552.24563006371
552.349872484818
552.442874290182
552.52596670001
552.600316948427
552.666944569029
552.726714679774
552.780453363744
552.828491898463
552.872410064792
552.909210961905
552.948475426184
552.966481586378
553.017053464659
552.982651985754
553.074379324291
547.212743091248
547.232066875675
547.279641104206
547.351872481391
547.448732676328
547.569053184848
547.712362138318
547.877878660762
548.064889284204
548.272527435684
548.499767284557
548.74531221202
549.0075058531
549.284214672049
549.572749630299
549.869810525683
550.16789486197
550.451135260957
550.712184110398
550.949128216112
551.162284698934
551.353073813254
551.523368994908
551.675181748673
551.810491735248
551.931154601263
552.038860460871
552.135120611373
552.221269104451
552.298479639037
552.367738744664
552.430036148325
552.485645976704
552.536660046844
552.579051996842
552.624784199102
552.645553812261
552.702935351424
552.667153099661
552.766789592924
546.326815532136
546.345931684101
546.392940991153
546.464694476011
546.561306065873
546.681839654244
546.826124104771
546.993732665718
547.184371603711
547.39764907213
547.633059831124
547.889852049487
548.166904157096
548.462559502361
548.774479851945
549.099516791373
549.429576811955
549.746696144411
550.041824935316
550.311779521767
550.556085306154
550.775731358284
550.972413391126
551.148143237405
551.305009702003
551.445036589012
551.570107356672
551.681930792299
551.78202900034
551.871754907381
551.952231780232
552.024654446483
552.089207043784
552.148621320572
552.19764774548
552.250971684354
552.275271678198
552.340378342328
552.303794956556
552.41214483987
545.356979181938
545.375629375403
545.421387360137
545.491661340006
545.586684052758
545.705759319717
545.849016800662
546.016396893933
546.208052179076
546.424115885389
546.664685303623
546.929677206754
547.21867832228
547.530736754219
547.864143292377
548.216209636963
548.578530522454
548.931145542203
549.263190952784
549.569841685498
549.849475652839
550.102348293664
550.329750217127
550.533542734667
550.715836785604
550.878784584066
551.024454444576
551.154763129801
551.27144025193
551.376045604006
551.469855430721
551.554319860653
551.629496244273
551.698898699098
551.755857062649
551.818121707888
551.846944139391
551.920869486836
551.884283272636
552.002235059369
544.299798300541
544.317695702237
544.361436559705
544.429105703876
544.521019598561
544.636719429956
544.776620089031
544.941023037379
545.130530616388
545.345825276686
545.58766148374
545.856723998135
546.153466509959
546.477874002757
546.829180891482
547.205548526857
547.598689794844
547.986975428719
548.357798562225
548.704354057498
549.023465374378
549.314254944752
549.57727036866
549.81397019165
550.026320647272
550.216507095481
550.386739924454
550.539136159304
550.675644314009
550.798058567259
550.907824347095
551.006705972308
551.094595584262
551.175943443009
551.242467107055
551.315311469227
551.349942696877
551.434006911355
551.398493040612
551.52705472351
543.15242847719
543.169263776074
543.21015949576
543.273999954935
543.36113839831
543.471339819402
543.605271712376
543.763568538857
543.947257766616
544.157560677796
544.395903239714
544.663793888527
544.962670590667
545.29365807089
545.65724786685
546.052888506194
546.472985990914
546.894858755197
547.304514277576
547.692971432065
548.055114431233
548.388466288331
548.692374377297
548.967506337088
549.215392353683
549.438057371045
549.637742496219
549.816715195415
549.977131369444
550.121039046929
550.250065708704
550.366355563539
550.469598945204
550.565341988237
550.643517616565
550.728964530059
550.771083380977
550.866903041856
550.833894724096
550.974247495221
541.912705854761
541.928155271485
541.96533860216
542.024062015546
542.104657331154
542.207088833578
542.332226988757
542.480988294873
542.654770044761
542.855281717328
543.084584149518
543.345003325148
543.639009023907
543.96899809353
544.336976812754
544.744102880755
545.184147598614
545.634302283406
546.079920736506
546.509940462702
546.917079802985
547.296824421179
547.646786513609
547.966309370083
548.256027075572
548.517453111681
548.75262141424
548.963810676469
549.153316204357
549.323430199747
549.475961155183
549.613498822883
549.73550071673
549.848765779028
549.941307827166
550.041904577399
550.093726763525
550.203319643738
550.17472645641
550.328306708123
540.579217268831
540.592952484156
540.625545273387
540.677840721251
540.750081149213
540.842395726671
540.955793057413
541.091399323658
541.250896374688
541.436389511182
541.650481211981
541.89623415905
542.177103160481
542.496777477695
542.858915224014
543.266699678177
543.715939285888
544.184879147944
544.65934378843
545.126717189328
545.577669580982
546.005421385252
546.405373390339
546.77493278285
547.113206308798
547.420634179587
547.698600337664
547.949085177875
548.17433029107
548.376782154627
548.558384258744
548.722216170698
548.867476788907
549.0023564693
549.112877977231
549.231917049221
549.296416794744
549.422366711956
549.400754937016
549.569382471207
539.15134473172
539.163044841421
539.190191351761
539.234773964335
539.296869582759
539.376730046542
539.475425645434
539.594202635838
539.734916655188
539.899938538167
540.092264166363
540.315533707846
540.574032040589
540.872617510528
541.216556545527
541.611168613441
542.054834159804
542.528146533153
543.018807480649
543.51366595099
544.001976435078
544.474916492507
544.92551240948
545.348753173658
545.741536040241
546.102478946102
546.431613433621
546.730040851986
546.999516411814
547.242364837393
547.460494064357
547.657435042639
547.832086015236
547.994114507393
548.127570824018
548.269456452241
548.350725134563
548.496455571906
548.485337318464
548.671424518001
537.62927749585
537.638643765117
537.659549171072
537.695214102664
537.745468692559
537.810640462822
537.891778531104
537.99014891552
538.107652890947
538.246768006309
538.410690176222
538.6034079032
538.829775783303
539.095543937834
539.407326212893
539.77240080157
540.191976372552
540.650190844823
541.13804744075
541.643252057553
542.154822504892
542.662748731696
543.158138359931
543.63357091896
544.083330671832
544.50350522685
544.891907589858
545.247880394556
545.57190576623
545.865563704233
546.130271972098
546.369741677621
546.582422813952
546.779397571216
546.94286224637
547.113764114564
547.217632869114
547.387893032604
547.392220293332
547.599134584045
536.013983306255
536.020759551225
536.03473573101
536.060416929888
536.097302608526
536.145748349105
536.206699419603
536.281339005807
536.371479465108
536.479531762343
536.608670893827
536.762955448158
536.947466234638
537.168432551206
537.433341160446
537.750931134207
538.125121162858
538.544475249114
539.004371205789
539.494814771306
540.006090050104
540.528423903986
541.052224922891
541.568516620782
542.069339612251
542.548105759374
542.999814828583
543.421143130644
543.810244939562
544.166904027684
544.491125348587
544.786036998986
545.049165077488
545.292539581473
545.49662863917
545.705746479254
545.840975398481
546.042787050876
546.0698712878
546.302617234015
534.307124691606
534.311132377876
534.317657798674
534.332492732849
534.354724563721
534.384694839482
534.423170305148
534.471155944567
534.530246750897
534.602616115757
534.691192320803
534.79980720343
534.933380778718
535.098122303036
535.301756131115
535.55370467049
535.860100216347
536.214366861516
536.616641199233
537.060290088802
537.538223924562
538.042470589527
538.564437283204
539.095262190928
539.626176567182
540.14891893637
540.656117971099
541.141631474788
541.600613974358
542.029981088166
542.427088168649
542.793100324894
543.123575832193
543.430153896205
543.69140048754
543.953465679048
544.134274341439
544.379041454243
544.440481490333
544.707106949078
532.510891895915
532.512110280555
532.510922978344
532.514329031418
532.520939134165
532.531054980863
532.545207193628
532.56414396333
532.589132890166
532.621957804824
532.665093485194
532.721864001312
532.796647607289
532.895118082883
533.024537692307
533.194071730549
533.41129484345
533.674487737671
533.988101472061
534.34921420864
534.754086547425
535.197606080887
535.673618678276
536.175171783484
536.694711852608
537.224365312041
537.756261548816
538.282897285783
538.797317373386
539.293758377393
539.766555068919
540.213753349719
540.62788654781
541.017914423351
541.359984216152
541.698599418746
541.949816533209
542.258744290213
542.375742266884
542.690948662145
530.627340910696
530.626107370553
530.617339548343
530.609089870266
530.599495507889
530.588831366677
530.577363280103
530.565530595808
530.554193820987
530.544629158395
530.538691947124
530.538965688199
530.548961189461
530.573361025421
530.618321666397
530.691822973375
530.802019286283
530.951789682531
531.148778630275
531.393382859902
531.685095165755
532.021769017492
532.40014010476
532.816063902675
533.264585820609
533.740065380857
534.236355865042
534.747044563478
535.265581735097
535.785826530143
536.301164578219
536.807697688961
537.296277098042
537.772067120918
538.210371105407
538.649174207168
539.00628636343
539.417783401189
539.636796155021
540.039384742586
528.679706578486
528.675647120547
528.658209791076
528.636527080384
528.608477959072
528.574386303124
528.534249140007
528.488160394416
528.436512026718
528.379972772167
528.319639238701
528.257158027397
528.194897954336
528.136165355832
528.085470124231
528.048848185858
528.034248046779
528.048795162372
528.101958891464
528.196723423366
528.335204746293
528.517560625882
528.742859082114
529.009429816127
529.314897290436
529.656224312478
530.029799779155
530.431571602755
530.857127275621
531.302060950739
531.7613893631
532.231812955453
532.706113892451
533.1872693593
533.656295407784
534.141023895503
534.576997047632
535.073017226258
535.41859000116
535.963191315813
526.530492464133
526.53878460665
526.528115559058
526.507955781227
526.476071521422
526.433024809734
526.378655827073
526.312833552539
526.235594413107
526.147112855862
526.047844457924
525.938620594991
525.820791786189
525.696407258796
525.568434182107
525.441049167841
525.321613411669
525.220192581834
525.14728018643
525.107716358629
525.105337041427
525.141676583274
525.217172565036
525.331609121325
525.48415012063
525.673358636592
525.897245341304
526.15333811749
526.438734956302
526.750316357842
527.084378828171
527.438072595766
527.805698751078
528.188047779928
528.570681785145
528.970645773571
529.339685489846
529.752762560463
530.038844119443
530.524713255559
524.242749855984
524.261973388663
524.25647713606
524.236125211458
524.198468983424
524.14425054403
524.073121850873
523.98470209967
523.878639208855
523.754570305894
523.612252114511
523.451621145377
523.272898196373
523.076717248129
522.864264384469
522.637531463714
522.403106027656
522.173990176011
521.961374649085
521.771630028862
521.609780256114
521.478232907661
521.3782608958
521.310507817446
521.275036985926
521.271349364494
521.298414441884
521.354703533504
521.438233049846
521.546683240052
521.677196308136
521.827299370301
521.992481239177
522.172544760947
522.356596659904
522.55613596482
522.734799029647
522.950719681285
523.062554847269
523.296027752679
521.78808144367
521.81758714325