/*--------------------------------*- C++ -*----------------------------------*\
| =========                 |                                                 |
| \\      /  F ield         | OpenFOAM: The Open Source CFD Toolbox           |
|  \\    /   O peration     | Version:  2112                                  |
|   \\  /    A nd           | Website:  www.openfoam.com                      |
|    \\/     M anipulation  |                                                 |
\*---------------------------------------------------------------------------*/
FoamFile
{
    version     2.0;
    format      ascii;
    arch        "LSB;label=64;scalar=64";
    class       volVectorField;
    location    "0.01";
    object      U.gas;
}
// * * * * * * * * * * * * * * * * * * * * * * * * * * * * * * * * * * * * * //

dimensions      [0 1 -1 0 0 0 0];

internalField   nonuniform List<vector> 
5240
(
(-0.0708012768357106 3.85622497080817e-22 42.312067273123)
(-0.129953790480295 -4.55729103907172e-23 42.1910048446889)
(-0.206889912648324 2.64185738489311e-21 41.8867755173745)
(-0.281014463099039 3.65947223953464e-19 41.4265095356038)
(-0.350303467537546 -1.07868696009157e-17 40.8217932721269)
(-0.412982115567888 -4.49308767455207e-18 40.0864195073682)
(-0.467952188145996 -9.41062215680741e-18 39.2356779921783)
(-0.514476947208621 -5.56179624370733e-20 38.286185867852)
(-0.552137305896476 -3.92297003906659e-18 37.2553945949669)
(-0.580789262704843 -2.52506460053844e-18 36.1610907106335)
(-0.600523150874102 -2.96741988483676e-18 35.0209409164513)
(-0.61161798818879 1.76153159509571e-20 33.8520997067253)
(-0.614492421107193 1.01199520757333e-18 32.6709095429091)
(-0.609651888123403 1.53723192128957e-20 31.4926959020222)
(-0.597634143821252 9.84823298061706e-19 30.3316658846086)
(-0.579150558790771 -4.46182031380519e-21 29.2010950184311)
(-0.555571673925064 -2.5720521867745e-19 28.1237631270896)
(-0.528799765995082 1.56167096862259e-18 27.1469694005861)
(-0.500005476677083 4.80475030102876e-19 26.2957081344101)
(-0.469818047427991 -1.01217883226391e-18 25.558644764933)
(-0.438835873348803 8.5727401551538e-21 24.9241670630825)
(-0.407528427011597 5.62783077199775e-19 24.3809998848306)
(-0.376255762252444 -4.86159070446992e-20 23.9185231311758)
(-0.345300743934615 -3.18840623038654e-18 23.526923673375)
(-0.314893396410133 5.25797646116984e-23 23.1972496388484)
(-0.28522661597584 3.52065862496771e-21 22.9214087792701)
(-0.256465370304796 2.49733351817014e-19 22.6921364636577)
(-0.228751569102018 2.38675023225164e-19 22.5029484366721)
(-0.202206411847614 -3.01582971061488e-22 22.3480869421021)
(-0.176931579031293 -2.30828431416493e-20 22.2224648272067)
(-0.153010186006479 -1.86997900890351e-18 22.1216099259247)
(-0.130507984078693 2.0877688422944e-18 22.0416107676012)
(-0.109474908285174 -4.63756188242488e-23 21.9790640627245)
(-0.089946780856731 -4.64051881886393e-21 21.9310241970024)
(-0.071946819031314 -5.5310691682495e-19 21.8949549317533)
(-0.0554865766255571 -1.30300207106626e-23 21.8686835440352)
(-0.0405660520743193 -2.14051227220153e-21 21.8503576779946)
(-0.0271728787423812 -4.76160659305686e-19 21.8384051910942)
(-0.015280744796459 9.7217044600296e-19 21.8314972917639)
(-0.0048504249798354 6.89414581350686e-21 21.828515100373)
(-0.147025878752195 2.92184870824631e-22 44.4607225235233)
(-0.27613829604886 -1.09022691009923e-21 44.3310113266154)
(-0.442945414742423 4.69052060799189e-21 43.99251342885)
(-0.604643436293961 2.03059140575025e-19 43.4810404497824)
(-0.759023505220227 -1.22794272171724e-17 42.808267965719)
(-0.902828474173398 -5.37810183821542e-18 41.9887370022335)
(-1.03407376099639 -1.15644443044581e-17 41.0382478944345)
(-1.15124835354433 -1.57712258606347e-19 39.97392865403)
(-1.2532624475174 -4.51499594705701e-18 38.8137480309153)
(-1.33937381738867 -3.10475817566522e-18 37.5760351900185)
(-1.40912810441936 -3.37486904252915e-18 36.2790416782901)
(-1.46229294155133 4.74899013743667e-20 34.9405723309698)
(-1.49878606500434 9.80589080917078e-19 33.5777173754101)
(-1.51859530579779 4.70956911111847e-20 32.2066888355003)
(-1.52167563222729 9.49936175067105e-19 30.8427831587037)
(-1.50827585356238 -1.27250718467131e-20 29.5010831885681)
(-1.47967199720265 -2.40512774764899e-19 28.2086883583401)
(-1.4373888215313 1.63869895847726e-18 27.022231110141)
(-1.38352544667014 3.43067516672733e-19 25.9772858884917)
(-1.32083745302848 -2.74756989289709e-18 25.0633442538596)
(-1.25138202607374 4.46655370887085e-20 24.269003404745)
(-1.17687332398226 7.74187397124856e-19 23.5827202812806)
(-1.09878928228826 -2.36116503065685e-19 22.9932575076081)
(-1.01842617563275 -3.78571661901678e-18 22.4899338894755)
(-0.936932545588176 -1.25941223369499e-21 22.0627595230154)
(-0.855329046098483 1.52262802733342e-20 21.7025012678127)
(-0.774518613236334 2.31184929874755e-19 21.4007054480757)
(-0.695290694634534 -1.15507264397303e-19 21.1496940139335)
(-0.618322614113093 -6.14763317475533e-21 20.9425441217546)
(-0.544180500210346 -1.21741012291432e-19 20.7730572943333)
(-0.473321566232694 -2.1635473711844e-18 20.6357219819063)
(-0.406098895429175 2.5274817085611e-18 20.5256718936644)
(-0.342769286816457 -3.63010511095484e-19 20.43864158587)
(-0.283504194037349 -3.18952713972122e-20 20.3709202891068)
(-0.228403369532141 -8.26588085754374e-19 20.319304710879)
(-0.177510517607986 -3.12923983371761e-22 20.2810514667244)
(-0.130830044380276 -1.26353952390967e-20 20.2538297887363)
(-0.0883436938147927 -5.7431403628556e-19 20.2356751754248)
(-0.050027089592771 1.2277335613192e-18 20.2249452992703)
(-0.0159865622581342 6.89421440991944e-21 20.2202836185869)
(-0.2144261936388 -1.29904585224302e-21 43.6769634876945)
(-0.414698117884451 -1.14465335054819e-21 43.555525216741)
(-0.668800702149165 4.30142486733571e-21 43.2245884944184)
(-0.913393826682635 -2.07501142480711e-20 42.726301295589)
(-1.14815524032949 -1.1422836203379e-17 42.071627927051)
(-1.36820409796431 -5.18128334492618e-18 41.2759050185404)
(-1.57082161079176 -1.06224521300707e-17 40.3554007061555)
(-1.75379199170328 -1.24735908754261e-18 39.32771638358)
(-1.91543198060067 -4.20319602978301e-18 38.2112355089349)
(-2.05448407687413 -2.83786469121373e-18 37.0246208516908)
(-2.17004140278978 -2.98897023721218e-18 35.7863420120545)
(-2.26146197898225 8.93260134679221e-20 34.5142712270977)
(-2.3282746469399 9.36444818185467e-19 33.2253787026898)
(-2.37007639361709 9.11071217354841e-20 31.935532973552)
(-2.38638875324072 8.96938583005498e-19 30.6594679590165)
(-2.37711027310588 -1.85599580330641e-20 29.4119486805892)
(-2.34339741403087 -1.20642174789223e-19 28.2179692165008)
(-2.28646339407097 1.48311818606879e-18 27.1257084876046)
(-2.20946051596578 1.47042800682865e-19 26.1679161407782)
(-2.11707566011724 -2.61133278008076e-18 25.3329386579822)
(-2.01262274455231 8.35372004746755e-20 24.6088982596839)
(-1.89895423409613 5.71601597982178e-19 23.9841376975818)
(-1.77855190739987 -3.94493483124268e-19 23.4476048086715)
(-1.65360612662908 -2.24190036985511e-18 22.9890387770011)
(-1.52606406079646 1.76921845825387e-19 22.5990445194831)
(-1.39765743512919 -2.217048412133e-19 22.2691022146852)
(-1.26991741032142 -1.24922870137345e-19 21.9915399253068)
(-1.1441816095886 -1.00209307509262e-18 21.7594863527509)
(-1.0215968849033 -2.40697593295152e-20 21.5668142662542)
(-0.903120505161691 -2.37021578545579e-19 21.4080811279544)
(-0.789521769535187 -1.66342676495119e-18 21.2784708095083)
(-0.681385455552837 2.1199489329577e-18 21.1737384980096)
(-0.579117942729526 -3.45231964501152e-19 21.0901596421376)
(-0.482956309028662 -7.38353779861581e-20 21.024482961641)
(-0.392980220725982 -7.86753164828477e-19 20.9738870603447)
(-0.309126102657462 -1.57269461142516e-21 20.9359399787548)
(-0.231202880949833 -3.09268223281926e-20 20.9085609715542)
(-0.158905832936006 -5.7313034682175e-19 20.8899836737193)
(-0.0918127421403066 1.10832408956709e-18 20.8787219126404)
(-0.0299459127196861 2.67323977348547e-20 20.8735605759769)
(-0.279645925415226 -7.11878823227895e-22 43.267577062984)
(-0.556072645340575 -2.0531397320718e-21 43.1505806747506)
(-0.900864450941759 -4.0926387871167e-20 42.8244498282185)
(-1.23110657633381 -3.18778754119178e-19 42.3345387628825)
(-1.54946039548074 -1.12981241100981e-17 41.6904615644363)
(-1.84894106646666 -5.17271189709524e-18 40.9084035729007)
(-2.12617394979455 -9.1043288184202e-18 40.0050000946659)
(-2.37817843833781 -1.43540145524482e-18 38.9982991930566)
(-2.6026382795085 -3.96431556453721e-18 37.9070787811717)
(-2.79774528241358 -2.69569897484631e-18 36.7503291568979)
(-2.96211473057061 -2.61403269385192e-18 35.5467459140384)
(-3.09468004973642 2.27471763552746e-19 34.3142934179307)
(-3.19457649325886 2.00627728321634e-18 33.0698685449499)
(-3.26102009476106 2.39976709830212e-19 31.8290830588118)
(-3.29315501248254 2.08442837871001e-18 30.6063178781869)
(-3.2906037261224 1.15906914190828e-18 29.4163860954216)
(-3.2543694083861 3.27603598782289e-21 28.2824194038194)
(-3.18531221808862 1.28992879555929e-18 27.2450267077423)
(-3.08772406063171 -1.72639421178959e-20 26.3363680516205)
(-2.96801180996834 -2.30959506889018e-18 25.5440101303735)
(-2.83059785465043 1.00783372181782e-19 24.8558610883553)
(-2.67942264759396 2.78648939587603e-19 24.2603689453983)
(-2.51791547877078 -1.35961729966536e-18 23.7468503767766)
(-2.34910280702524 -1.87928028848094e-18 23.3056007709834)
(-2.17566988923909 -6.0995799548143e-19 22.9279072097212)
(-1.99999926673839 -2.07796934298392e-19 22.6060056283669)
(-1.82419525763173 6.32749256059595e-19 22.3330088603837)
(-1.65009991983868 -1.6485373943865e-19 22.1028217283449)
(-1.47930382420145 -8.09811157383648e-19 21.9100529866889)
(-1.31315376570557 4.2557343692001e-20 21.7499301247868)
(-1.15275896803873 -1.15668829158271e-18 21.6182206675417)
(-0.9989971235369 2.26122598713809e-18 21.5111620135878)
(-0.85252153120126 -2.91374677566279e-19 21.4254006988991)
(-0.713770492664195 1.83645223979858e-19 21.3579411220692)
(-0.58297992589262 -7.26102375577156e-19 21.3061031720965)
(-0.460200072780219 -5.79265402865893e-21 21.2674878565413)
(-0.345317686376107 -5.24161358801434e-20 21.2399497267837)
(-0.238074288598386 -4.05450067956365e-19 21.2215737833247)
(-0.137986372105622 1.08831060386631e-18 21.2106572144477)
(-0.0454373315474237 4.50877907567101e-20 21.2057445392942)
(-0.34269492373318 -7.94195151315552e-22 43.8076675805332)
(-0.696998081472325 -3.42162622907384e-21 43.6899565777112)
(-1.13292443693439 -6.196818618175e-20 43.3578834860621)
(-1.54955742447854 -2.70261252048341e-19 42.858557667866)
(-1.95258945102912 -1.06501323943803e-17 42.2003230261828)
(-2.33245663552407 -6.06630897153649e-18 41.4002538717985)
(-2.68525658748885 -8.1545988424223e-18 40.4752804336364)
(-3.0072015174105 -1.64659641333117e-18 39.4439103349636)
(-3.29534700964517 -3.96919739314069e-18 38.3253378992484)
(-3.54734179237943 -2.70181811923974e-18 37.1389318962638)
(-3.76134289202703 -1.50742245262225e-18 35.903698537133)
(-3.93589111621013 -6.31018930304074e-19 34.6378237008236)
(-4.06977440812898 1.85127762445485e-18 33.3583218506196)
(-4.16189785332113 3.95877835238974e-19 32.0808386034885)
(-4.21115893761903 1.86928293650539e-18 30.8198806436924)
(-4.2170379275368 -5.5407672801576e-20 29.5909110411268)
(-4.1804157549109 1.56192951650478e-19 28.4165784960423)
(-4.10187026485603 2.14900245303647e-18 27.3348005935462)
(-3.98685136070482 -1.78621985536436e-18 26.381919553156)
(-3.84326261943355 -3.35781171439444e-18 25.5454416672644)
(-3.67649457035801 2.2140566955084e-19 24.8133596126197)
(-3.49144337513344 9.09731705475035e-19 24.1742877660015)
(-3.29233632646194 -6.38570995255033e-19 23.6177905318546)
(-3.08288737382383 -1.79804231607392e-18 23.1344544032591)
(-2.86636826034285 -5.16656836549397e-19 22.715877764898)
(-2.64565909106773 -1.42088109617688e-19 22.354611114031)
(-2.42328662931171 5.39017369138263e-19 22.0440734815899)
(-2.20145673185196 -2.39995544633121e-19 21.7784593392852)
(-1.98208414808701 -6.21784420021656e-19 21.55264403269)
(-1.76682077573958 3.31942170798811e-19 21.3620924539533)
(-1.55708230785669 -8.11521839508036e-19 21.2027739199732)
(-1.35407272464962 1.42367215969806e-18 21.0710852178456)
(-1.15880598911161 -2.95850153556641e-19 20.9637830546404)
(-0.972124338341471 -3.23410639147187e-19 20.8779264780149)
(-0.794712513916762 -9.68717810072933e-19 20.8108291530875)
(-0.627107813320619 -1.15671721495775e-20 20.7600208185495)
(-0.469709762546206 -6.51278178158442e-20 20.7232167724404)
(-0.322775993501398 -2.67577636524313e-19 20.698292573588)
(-0.186211489402593 1.06447164959216e-18 20.6832653069237)
(-0.0616760388924235 5.89895247967482e-20 20.6763451598216)
(-0.410296541463536 9.78485575459788e-17 44.7341159745564)
(-0.847911589723677 9.617082595791e-17 44.6119955096288)
(-1.38046724551877 -7.73524374028356e-20 44.2671377735369)
(-1.88931052028652 -7.09370022130857e-19 43.7482583246748)
(-2.3828440597528 -1.05809348170369e-17 43.0630512495443)
(-2.84854419487219 -6.42198284847616e-18 42.2296546366764)
(-3.28205364904449 -8.17793611987838e-18 41.2654146887492)
(-3.67867124547402 -3.46122226912005e-18 40.1894815012322)
(-4.03479637205505 -4.01404302376272e-18 39.0216354455205)
(-4.34751473984904 -2.77904788342126e-18 37.7817976157848)
(-4.61452887147006 -1.61576616241172e-18 36.4894517717159)
(-4.83401356099865 -1.3570469704835e-18 35.1631608695805)
(-5.00446205832937 -7.45522639709232e-18 33.8202021354217)
(-5.1245582097338 -8.94335578412379e-17 32.4764149981298)
(-5.19309885886953 -6.55834476642209e-17 31.1466527433196)
(-5.20951728834893 8.74369367512123e-17 29.8471448709887)
(-5.1744833370601 7.43435864295391e-17 28.600107296149)
(-5.08834618244825 2.8183086771263e-18 27.442175570265)
(-4.95788570246971 -1.96227473982202e-18 26.4154413432589)
(-4.79253072066613 -2.90263615474646e-18 25.5072872945882)
(-4.59867206884142 -6.53803552066395e-19 24.7056203665139)
(-4.38213891492248 -3.701140249211e-19 23.9990195298357)
(-4.14790982475639 -1.88052313886727e-18 23.3770642319952)
(-3.90033021937055 -2.56284162888356e-18 22.8303796599394)
(-3.64318730364332 -3.94401288886292e-19 22.3506128556862)
(-3.37976916413228 -4.92113352189184e-20 21.930364803825)
(-3.11291170502435 5.13234765632365e-19 21.5631061717172)
(-2.84504282279873 -2.46199324642504e-19 21.2430895495843)
(-2.57822801995758 -2.73592876091891e-19 20.9652641206304)
(-2.31421831643498 1.03006053780714e-18 20.7251952282512)
(-2.05449940551159 -1.15101340400064e-18 20.5189898583555)
(-1.80034030418352 7.87482498611367e-19 20.3432285863179)
(-1.55284001086353 -2.2670557921611e-19 20.1949044619123)
(-1.3129716339897 5.03248502022394e-20 20.0713693509939)
(-1.08162449233361 -8.22830929954048e-19 19.9702880876348)
(-0.859645847846639 -1.71456051418766e-20 19.8895998247821)
(-0.64788875862688 -7.87836769962345e-20 19.8274854286896)
(-0.447242961405633 -1.77937290972288e-19 19.782349503036)
(-0.258441893355633 8.51938511148175e-19 19.752865384514)
(-0.0866130936137234 3.11704050223671e-20 19.7381104659449)
(-0.483692852392358 4.42293070478238e-17 45.7567866919434)
(-1.01103143821242 3.9088223907854e-17 45.6289036916233)
(-1.6467383421964 1.74195682406627e-19 45.2687148783474)
(-2.25439415223522 -2.50670268008817e-18 44.7266367235484)
(-2.84476931563134 -9.92377787005413e-18 44.0101773760612)
(-3.40217362185238 -7.49741678217256e-18 43.1386683440441)
(-3.92184169469856 -9.02931572503545e-18 42.130020098853)
(-4.39804428567831 -3.60815939816624e-18 41.0042187026373)
(-4.82650279277596 -5.03391801234877e-18 39.7818036012772)
(-5.2037265557874 -3.70792155994567e-18 38.4834197004549)
(-5.52698430282378 -1.6984492979345e-18 37.1291807320919)
(-5.79413859668782 -2.0378347397641e-18 35.7381539712378)
(-6.00348155999189 -6.82043131332266e-18 34.3279841078123)
(-6.15362254700704 -3.34727098627773e-18 32.914814951156)
(-6.24345013788882 1.39598877746782e-17 31.5139631024871)
(-6.27241246503421 2.70098352713031e-19 30.1422554198589)
(-6.24080620693021 -9.29456831314829e-18 28.8208707450728)
(-6.14894811761955 1.70513427337047e-18 27.5851362972081)
(-6.00527503812361 -3.38463365898116e-18 26.4829433341964)
(-5.82080356488723 -2.40617466469241e-18 25.5012344823171)
(-5.6029790990491 -6.28582275640676e-19 24.6276208141019)
(-5.3585714954366 -5.02841110545042e-19 23.850497055474)
(-5.09331692235915 -1.11891789745967e-18 23.1593376335642)
(-4.81220307279776 -2.47953904493019e-18 22.5447007288393)
(-4.51954520872773 -1.62514853401345e-18 21.9981750987944)
(-4.21904776723219 -1.02068351790045e-18 21.5122901321476)
(-3.91384629456961 3.23970523969428e-19 21.0804209851901)
(-3.60654440213475 -2.24826529535958e-19 20.6967006893932)
(-3.29925208145578 -1.66710090515697e-19 20.3559427843133)
(-2.99362713417052 1.40426108930912e-19 20.0535736151009)
(-2.69091831794241 -1.49971099842471e-19 19.7855718847123)
(-2.39200697538333 8.87293245069611e-19 19.5484130617332)
(-2.09744294054404 4.3853203159315e-19 19.3390169438367)
(-1.80747075986116 -1.46963225022559e-19 19.1546982815478)
(-1.5220454538212 -7.85667212540867e-19 18.9931241699283)
(-1.24083712187626 -6.43716168262359e-19 18.8522817336019)
(-0.963176314641297 -7.94057869670483e-20 18.7304138259996)
(-0.687737060521643 -8.29900050383172e-20 18.6257376492885)
(-0.4123025580146 1.14727017848444e-18 18.5360575602185)
(-0.145148164409214 9.34240845602164e-20 18.4630602320779)
(-0.561340302135667 4.48497898116152e-17 46.8805199088845)
(-1.18381930722353 3.85855647931327e-17 46.7468622711877)
(-1.92834221950399 -1.34622931715329e-19 46.3709991503767)
(-2.64049247265434 -3.2535992074558e-18 45.8048721647929)
(-3.33323535844133 -9.99936441713361e-18 45.0558694709124)
(-3.98755905735441 -7.05483777771314e-18 44.1445109863483)
(-4.59833224227064 -8.26431072164614e-18 43.0892996328679)
(-5.15869113539335 -3.6966575362254e-18 41.9111398886477)
(-5.66367046205734 -6.0986182955088e-18 40.631401764193)
(-6.1091972217571 -4.73154756893716e-18 39.2715420476869)
(-6.49214087428234 -2.75656547928459e-18 37.8523917352253)
(-6.8101257707375 -2.71014637742819e-18 36.3936089962564)
(-7.06136423055073 -7.50986659215001e-18 34.9132970817994)
(-7.24456987608977 -1.26545436578328e-18 33.4280111051969)
(-7.35894947571453 1.13043458243572e-17 31.9535804588175)
(-7.40405610680847 -1.2911979863932e-18 30.5071120860138)
(-7.3796872686669 -7.61029534324817e-18 29.1083681695285)
(-7.28642778062795 1.19911171733024e-18 27.7919478731035)
(-7.13463465480072 -1.33740542613855e-18 26.6112253206442)
(-6.93697153345965 2.47825744864088e-18 25.5525027561423)
(-6.70190259118054 3.80532081243303e-19 24.6030438559207)
(-6.43711473782958 4.04810941447677e-19 23.7510476151402)
(-6.14910059708552 -5.24140045626173e-19 22.9859056152274)
(-5.84352662445859 9.06090616195215e-19 22.2981468306059)
(-5.52532409894594 -2.1951145069977e-18 21.6793354037304)
(-5.1987639874491 4.87786365585827e-19 21.1219371560411)
(-4.86749850592923 1.55781119868796e-19 20.6191938302917)
(-4.53459285588336 -1.75903445961228e-19 20.1650176964714)
(-4.20255877028471 -1.85062290268873e-19 19.7539092390151)
(-3.87339651618683 -3.25325515126809e-19 19.3808943815684)
(-3.54864771667108 -1.52613771752852e-18 19.0414752796973)
(-3.22945874650538 9.69750497508923e-19 18.7315885393628)
(-2.91665101210716 1.19071146879582e-18 18.4475651819232)
(-2.61078260300758 -2.40899036659663e-19 18.1860882697892)
(-2.31218493531042 -5.63219374930988e-19 17.9441553358712)
(-2.02115631222693 -5.11015611679736e-19 17.7190732456794)
(-1.73917709828104 -8.01649681235446e-21 17.5083866939857)
(-1.46989776505166 1.49096161879721e-19 17.3088565358178)
(-1.18483298873795 1.37300756285197e-18 17.1139790641025)
(-0.517850414007178 2.13671342961196e-18 16.9396014357459)
(-0.641731735891659 4.57269820128775e-17 48.1721274423523)
(-1.36334327615667 3.80911334110241e-17 48.0330685747388)
(-2.22124714641981 -2.98408378302443e-19 47.6418790464596)
(-3.04249328006277 -3.48736713542449e-18 47.0518475274749)
(-3.8422886144692 -9.8741900884387e-18 46.2700647628335)
(-4.59809917089822 -7.20161856209604e-18 45.3181496362499)
(-5.30449362819086 -7.93410705878729e-18 44.2150872483923)
(-5.95337608031603 -4.37505354859262e-18 42.9826639194527)
(-6.5391006246494 -7.72924620071396e-18 41.6430410193976)
(-7.05701000021586 -5.17123186994636e-18 40.2184887780027)
(-7.50361447862297 -3.08973801938236e-18 38.7305812168649)
(-7.87637901043804 -4.13885928883237e-18 37.1996227747579)
(-8.17355962541949 -7.81862159744718e-18 35.644257586195)
(-8.39414570740591 -1.34101431292899e-18 34.0815404994411)
(-8.53791303960765 8.03038418533401e-18 32.5278131557818)
(-8.60473061900303 -3.46604745366839e-18 31.0002556679826)
(-8.59385579133185 -7.72627239459705e-18 29.5174234481047)
(-8.50637375095511 1.4117972190153e-18 28.1142512104527)
(-8.35465645167665 2.73459714894628e-18 26.8490864921007)
(-8.15309247863958 2.30435236807086e-18 25.7075442028759)
(-7.91102798032643 1.50661101205607e-18 24.6765837917565)
(-7.6369678296016 1.02442875120034e-18 23.7442435654116)
(-7.33806065834015 -1.65268704255815e-18 22.8999167085508)
(-7.02058465772984 -6.6741161718781e-19 22.1342378837899)
(-6.69007941493504 -6.26399517622227e-19 21.4389325464818)
(-6.35145836140091 -6.94358808396823e-19 20.8066315203993)
(-6.00906530545611 1.92881625627082e-18 20.2307021268144)
(-5.66670675538097 1.32423531950172e-18 19.7051124327964)
(-5.32767604005645 2.7276956423403e-19 19.2243346192611)
(-4.99478120176289 -1.54040693467572e-18 18.7832844237746)
(-4.67038323238889 -1.28206984059309e-18 18.3772890105158)
(-4.35644894217494 -3.51021766397361e-19 18.0020740402831)
(-4.05462402020878 1.23574295822914e-19 17.6537592063505)
(-3.76630400846654 1.38148798870245e-18 17.3288469271453)
(-3.49253459458488 -6.38521803334407e-19 17.0242071183855)
(-3.23363885687407 -3.15460022136493e-19 16.7371921074161)
(-2.99173769967136 2.02153285308636e-18 16.4659291340184)
(-2.78896901062274 -3.65841866846774e-19 16.206504487941)
(-2.63976994297326 2.7345201424195e-19 15.938955342934)
(-1.26829576499765 -1.61450798106055e-17 15.7607973614104)
(-0.725282410719122 4.67191997095102e-17 49.6672796488239)
(-1.54990832435854 3.81507690159446e-17 49.5225048411535)
(-2.5257071215332 -6.04294292209838e-19 49.1154967979006)
(-3.46054121019072 -3.55400352571073e-18 48.5008989121201)
(-4.37197743776256 -1.07718683778595e-17 47.6853270551267)
(-5.23374156338421 -7.30419027776524e-18 46.6914343917481)
(-6.04017630982028 -7.18658661358119e-18 45.5385599895387)
(-6.78185429742116 -4.33607155601898e-18 44.2493277271774)
(-7.45245843867692 -7.51397397918783e-18 42.8466427266423)
(-8.0467386596925 -5.19525837988348e-18 41.3535937128255)
(-8.56087925014124 -3.17163038246714e-18 39.7925361654039)
(-8.99225373537554 -4.34655451616716e-18 38.1845010976191)
(-9.33927172713682 -5.47117935063359e-18 36.5487868124563)
(-9.60134105818761 -4.56053587893605e-19 34.903061521822)
(-9.77903140382842 6.25223481039872e-18 33.2642265786427)
(-9.87280864519067 -3.69269365132686e-18 31.6495686393016)
(-9.88145362414632 -8.23221649139789e-18 30.0769863295763)
(-9.80675206136397 -6.29005342617897e-20 28.5826122503622)
(-9.66312351159922 2.60248273916371e-18 27.2291934016148)
(-9.46673251128984 2.24503849216837e-18 26.001625246714)
(-9.22765792645131 1.53226348128004e-18 24.8865498214779)
(-8.95505840563567 1.51694805668892e-18 23.87178974388)
(-8.65649595865503 -2.57230205482223e-18 22.9467421243705)
(-8.3385761918544 7.59066147509506e-19 22.1022259672905)
(-8.00713890053822 -2.56174780873245e-19 21.3303077627345)
(-7.66742955900788 3.88104319098722e-19 20.6240723488312)
(-7.32418450276255 3.34815932529994e-18 19.9774067918732)
(-6.9816660772025 1.13758415826469e-18 19.3848179747634)
(-6.6436638456169 9.76201398861658e-19 18.8412963071206)
(-6.31347788282841 -1.28978095228942e-18 18.3422266877206)
(-5.99389506590407 -4.33274587457635e-19 17.8833411693327)
(-5.68716715597589 9.48688646638094e-19 17.4607048716111)
(-5.39501969555239 -1.59525693153315e-18 17.0707230223502)
(-5.1187433277295 1.23962122212206e-18 16.7101342966897)
(-4.85906931625264 1.88182740234904e-18 16.3759561384908)
(-4.61423410316251 2.03041698181708e-18 16.0657669842083)
(-4.37892856060571 1.96055101674102e-18 15.7792907754923)
(-4.19119757860402 2.76216353381779e-19 15.5122052388224)
(-4.24897767687712 6.17992896301835e-18 15.2008782129862)
(-2.20944805415238 1.82049421382809e-18 15.1614649686112)
(-0.812057662154057 4.77450538299418e-17 51.3784628136029)
(-1.74342349529975 3.83584344861265e-17 51.2269236225906)
(-2.84148431743411 -2.65511032149684e-19 50.8029264636355)
(-3.89413485152546 -4.29794149013687e-18 50.1625807363584)
(-4.92152966079181 -1.04351894072279e-17 49.3118375881971)
(-5.89341955850205 -7.62286533110825e-18 48.2743405931276)
(-6.80402077782658 -8.13335051403306e-18 47.0696464003862)
(-7.64247321277531 -4.45607280708973e-18 45.721176321613)
(-8.40180188415965 -6.24442979655141e-18 44.2525314515935)
(-9.07614448479245 -4.99823297494284e-18 42.687633562096)
(-9.66137824370226 -3.55884690717801e-18 41.0496726914658)
(-10.1548308140954 -2.73993631493997e-18 39.3605095185083)
(-10.555149348388 -4.55825038576616e-18 37.6402362038381)
(-10.8622605639601 6.61856542757855e-19 35.9072741539136)
(-11.0776965070622 6.94551396246673e-18 34.1791773221943)
(-11.2028161061994 -5.65995628000462e-18 32.4735136354163)
(-11.2360465087511 -7.37244053961849e-18 30.808266702164)
(-11.1800722089671 1.6808134976563e-19 29.2215543308038)
(-11.0513707107204 2.64967572957898e-18 27.779769986779)
(-10.8679600610292 3.16650040498701e-18 26.4670220271352)
(-10.6405677222503 2.58367772818515e-18 25.2695076091157)
(-10.3788718831603 -9.37428096206046e-19 24.1746155024999)
(-10.0905745043484 -2.02062566304359e-18 23.1715410239728)
(-9.78222601311477 -1.62852794542041e-18 22.2511113368959)
(-9.45947835754447 -5.51415549536779e-19 21.4056262232352)
(-9.12733971779502 1.22074674483252e-18 20.6286070684993)
(-8.79032198732021 4.54954979383749e-18 19.9145423784613)
(-8.4525221969837 -1.15669127848809e-18 19.2586494948059)
(-8.11765026295108 6.9698234082463e-19 18.6566711506867)
(-7.78902084711154 -1.61803001753198e-18 18.1047142502667)
(-7.46952281170311 -2.33413924731473e-18 17.5991319466776)
(-7.16157022428209 -1.43753863341514e-18 17.1364487341378)
(-6.86706687451346 -9.72770440265795e-19 16.7133288832484)
(-6.58759562306986 1.24969074416362e-18 16.3265344449198)
(-6.32486712078128 1.98803101550191e-18 15.9726945606337)
(-6.0777868001292 1.95050069313142e-18 15.6485807103492)
(-5.82961803021737 1.89774628797173e-18 15.3561402824424)
(-5.60646360823603 -4.04525926279529e-18 15.0962776378688)
(-5.9074479256881 -8.84146876561255e-18 14.7041919241617)
(-3.28517304525949 1.61123663218047e-18 14.8840371836843)
(-0.901908557051218 4.88921845283215e-17 53.3168776651858)
(-1.94349861532474 3.88308959413467e-17 53.156524550627)
(-3.16792942017116 -4.28015899004222e-19 52.7134952879371)
(-4.34224920893064 -4.78747229772988e-18 52.0454841337463)
(-5.48952525321227 -8.82558473745883e-18 51.1575728775142)
(-6.57526721074536 -6.46879171800891e-18 50.0743688663746)
(-7.59369699112028 -8.08460457934847e-18 48.8155111700402)
(-8.53241684835261 -5.10710424332218e-18 47.4051891318566)
(-9.3838135278119 -1.13213896335759e-17 45.8676539463434)
(-10.1413808807722 -1.17008489324518e-16 44.2276823538451)
(-10.8006907095402 -2.09872023010982e-15 42.5093597462545)
(-11.3590406434361 -1.9436767388898e-15 40.7354915199935)
(-11.8153650350471 -4.29673498229311e-18 38.927117944288)
(-12.170160593498 1.47224133607229e-18 37.1035740055401)
(-12.4260136421328 6.255800236536e-18 35.2831979955968)
(-12.5854483286754 -3.79486164901274e-18 33.484096511141)
(-12.6466762117035 -6.2860370165754e-18 31.7252024275913)
(-12.6134941839065 1.95982634137598e-18 30.0474186321477)
(-12.5044477493045 2.63438214447164e-18 28.5198574986773)
(-12.3395584316613 2.12147235533521e-18 27.1258355377483)
(-12.1302734366341 1.49583129751583e-18 25.8509094993443)
(-11.8868365193273 -2.49471589004254e-18 24.6816979834676)
(-11.6170113892971 -7.88195146526254e-19 23.6067977561581)
(-11.3271155842926 8.30269138415227e-19 22.6165817828622)
(-11.0223152392183 1.51068123217981e-18 21.7030955507795)
(-10.7069697086678 5.01082835260781e-18 20.8598174182153)
(-10.3848613883485 3.6240908442621e-18 20.0814038254269)
(-10.059362697245 -1.19160277681828e-18 19.3634300908423)
(-9.73354515289789 1.23516351488871e-18 18.7021483893788)
(-9.4102445730329 -3.84197700889609e-18 18.0942731745389)
(-9.09209295832917 -2.26515535776921e-18 17.5367993970335)
(-8.78150288525983 4.87184694555152e-19 17.026860355253)
(-8.48057201039136 -5.89953944609007e-19 16.5616517561104)
(-8.19121499324057 1.4936231381866e-18 16.1383787294872)
(-7.91655331898373 1.93244412538252e-18 15.7537148675034)
(-7.65939094745016 -4.30328469882502e-19 15.4032597983375)
(-7.39323483968693 1.36965318924222e-18 15.0923496726172)
(-7.0943914602397 4.44048583368444e-19 14.8448910480976)
(-7.64033607514704 -9.57215190171275e-18 14.3224780083276)
(-4.49618531824606 -4.9294902352859e-17 14.7925882086964)
(-0.994388735859728 5.0437849324462e-17 55.4990382483806)
(-2.14925460842715 3.946436367238e-17 55.3265151415113)
(-3.50374252896369 -2.89403194632184e-19 54.8612370832681)
(-4.80305538525745 -5.11478596352994e-18 54.1625332262417)
(-6.07358307667529 -9.02164217850381e-18 53.2344688646588)
(-7.27627534390396 -6.36322615277291e-18 52.1025998590479)
(-8.40553889227385 -7.38055817645622e-18 50.7865295143679)
(-9.44733160723871 -6.06681497564398e-18 49.3111914545413)
(-10.3934371305717 -1.44812204824726e-17 47.7014373858072)
(-11.2366659915803 -1.07957424942765e-16 45.9829151938873)
(-11.9722723225564 2.08975619628853e-16 44.1806575437938)
(-12.5975083249445 2.62858020565541e-16 42.3185213688928)
(-13.1116068048269 -3.44321283901093e-18 40.4186423771997)
(-13.5156337386672 1.68343647971449e-18 38.5014317719937)
(-13.8132292466695 5.99572289696728e-18 36.5861582960999)
(-14.0083080257483 -3.43858692324074e-18 34.6917372334156)
(-14.0989904223827 -6.56398845800775e-18 32.8390052434898)