/*--------------------------------*- C++ -*----------------------------------*\
| =========                 |                                                 |
| \\      /  F ield         | OpenFOAM: The Open Source CFD Toolbox           |
|  \\    /   O peration     | Version:  2112                                  |
|   \\  /    A nd           | Website:  www.openfoam.com                      |
|    \\/     M anipulation  |                                                 |
\*---------------------------------------------------------------------------*/
FoamFile
{
    version     2.0;
    format      ascii;
    arch        "LSB;label=64;scalar=64";
    class       volVectorField;
    location    "0.01";
    object      U.particles;
}
// * * * * * * * * * * * * * * * * * * * * * * * * * * * * * * * * * * * * * //

dimensions      [0 1 -1 0 0 0 0];

internalField   nonuniform List<vector> 
5240
(
(-0.0510620044399764 2.4663894369588e-22 38.251423823684)
(-0.0936559963636697 -1.00823823747326e-22 38.1580478329983)
(-0.148916092005046 2.29078734976644e-21 37.9274542619664)
(-0.201901227164559 2.47186063263669e-19 37.5790027398635)
(-0.251080460269862 -7.70720636116322e-18 37.1226372871092)
(-0.295128128261988 -3.21375617326911e-18 36.569882281242)
(-0.333234386215975 -6.67053740600444e-18 35.933527445606)
(-0.364877566241721 -4.78627441378838e-20 35.2273824890367)
(-0.389789791717238 -2.76126641709771e-18 34.4658276224598)
(-0.407921705469433 -1.77020059906131e-18 33.6633664563612)
(-0.419407287803032 -2.06120239799429e-18 32.8342293277031)
(-0.42452432229054 1.48475393761045e-20 31.9920433738992)
(-0.423646372127313 6.95433448919013e-19 31.1495635684841)
(-0.416915480737165 1.27425955895883e-20 30.3168358238033)
(-0.405098705479495 6.65447765247073e-19 29.5076886786861)
(-0.389063177345948 -3.4898422083504e-21 28.7329266103788)
(-0.370131441998266 -1.62419872008994e-19 28.0073768031601)
(-0.355049726133616 1.05106221431622e-18 27.3533482145241)
(-0.340648258093946 3.23704851806702e-19 26.7672142091295)
(-0.323979626254723 -6.95583827301087e-19 26.2467031107896)
(-0.30566341582103 7.40626630657948e-21 25.7894072244577)
(-0.28624005775291 3.94912926947757e-19 25.3912608562054)
(-0.266129831910773 -4.27319713649349e-20 25.047444406762)
(-0.245668444803077 -2.26307016276551e-18 24.7528532384843)
(-0.225131952750011 4.90591277643197e-23 24.5023720542939)
(-0.204752228641989 3.14757175680257e-21 24.291042858208)
(-0.184726262501066 1.79914395066764e-19 24.1141681578482)
(-0.165221648375669 1.71853931928879e-19 23.9673724066911)
(-0.146379898805957 -2.84850913597942e-22 23.8466354293183)
(-0.128318726986389 -2.08135589397657e-20 23.748306442415)
(-0.111134030542943 -1.3510255680484e-18 23.6691042934935)
(-0.09490195522068 1.51523955610479e-18 23.6061077666735)
(-0.079681116457756 -4.43509035321368e-23 23.5567387487503)
(-0.0655148363621173 -4.20800102674867e-21 23.5187404080051)
(-0.0524331348095535 -4.02620000186108e-19 23.4901521255513)
(-0.0404542014483356 -1.24777226932725e-23 23.4692826213299)
(-0.0295851545890416 -1.94458759510845e-21 23.454682468165)
(-0.019822030826495 -3.46695603603761e-19 23.4451167547897)
(-0.0111491964196645 7.09279935061078e-19 23.439507845953)
(-0.00354041470178091 5.0321190682555e-21 23.4367203397622)
(-0.108487196357864 2.35138268779894e-22 41.9531069046832)
(-0.202858449220027 -8.68952253905989e-22 41.8398509194344)
(-0.325155991815067 4.26534729889081e-21 41.5519272211291)
(-0.444004296219466 1.79943858939749e-19 41.1163540571208)
(-0.557641515569879 -1.04134592927677e-17 40.5435393914748)
(-0.663717940072306 -4.54093374026132e-18 39.8458693372631)
(-0.760804984775264 -9.57363772583918e-18 39.0368866649804)
(-0.847820706460426 -1.39722793392965e-19 38.1312437596927)
(-0.923983426296784 -3.82618194406141e-18 37.1442835901707)
(-0.988754208018339 -2.59434142025636e-18 36.0916234075691)
(-1.0417898161509 -2.85405441779369e-18 34.9887840195763)
(-1.08289242902321 4.26846885032141e-20 33.8508855408547)
(-1.11196516912435 8.70391301556834e-19 32.6924273200322)
(-1.12910984463836 4.26123080099148e-20 31.526631055105)
(-1.13406738910576 8.42189148702014e-19 30.3669755823687)
(-1.12695390153084 -1.14054144281554e-20 29.2269317063166)
(-1.10921949479853 -1.81540771962967e-19 28.1297515260246)
(-1.0836834976118 1.44846439934854e-18 27.1204841515457)
(-1.05209548393112 3.09924913283678e-19 26.2189555263246)
(-1.01153579632643 -2.08785604835369e-18 25.4216987857477)
(-0.964286029572142 4.07612020507744e-20 24.7222874993418)
(-0.911705136055522 6.54602187957159e-19 24.1134150441264)
(-0.855074594672892 -2.18207622430097e-19 23.587210868448)
(-0.795568420677679 -3.31384696382706e-18 23.135665235504)
(-0.734250699426862 -1.0912291191285e-21 22.7509151551979)
(-0.672078710884904 1.43049420377799e-20 22.4254280862713)
(-0.609904904476044 2.13879726151101e-19 22.1521165468256)
(-0.54847729630534 -3.73315024515552e-20 21.9244057778798)
(-0.488439429277084 -5.75552461415209e-21 21.7362689106281)
(-0.430331198494132 -1.1342197728033e-19 21.5822392019291)
(-0.374591564925368 -1.90307530651664e-18 21.4574058151742)
(-0.32156375950229 2.23222505474983e-18 21.3573976489516)
(-0.271503142803975 -2.63237915321466e-19 21.2783584432385)
(-0.224587503039068 -2.9520721270562e-20 21.2169155768475)
(-0.180929285749469 -7.0834428927579e-19 21.1701444547144)
(-0.140589063734631 -2.93728536502448e-22 21.1355300595818)
(-0.103589458313578 -1.17980921809027e-20 21.110926989423)
(-0.0699285838543511 -5.09063969456576e-19 21.0945173819347)
(-0.0395929808795918 1.0876920665136e-18 21.0847709700003)
(-0.0126585122181715 6.39556961181342e-21 21.0806316465989)
(-0.169747746261766 -1.19855742284867e-21 42.9400398715153)
(-0.32524320579727 -1.10485852881894e-21 42.8220885453173)
(-0.524008196460459 2.97514980636941e-21 42.5110693288361)
(-0.716626399998153 -6.9054572280391e-21 42.0418471329218)
(-0.902415299471827 -1.09190591182255e-17 41.4249778758833)
(-1.07776780670836 -4.94226832376624e-18 40.6742132846502)
(-1.24064379610328 -1.00654922778324e-17 39.8043225754511)
(-1.38936175264914 -8.35358282329342e-19 38.8313081580743)
(-1.52259227847242 -4.01963525312999e-18 37.7719404430621)
(-1.63927043996236 -2.728648521794e-18 36.6433170832772)
(-1.73853390553363 -2.8803368331912e-18 35.4624554470363)
(-1.81965706416245 8.39466803373071e-20 34.2459458151423)
(-1.88199737548053 8.99514638854273e-19 33.0096735954748)
(-1.92497485706682 8.61324073114393e-20 31.7684655023034)
(-1.94754303109148 8.63018031620234e-19 30.5368565662878)
(-1.94951192196001 -1.72766369677499e-20 29.3293391689498)
(-1.93173291676223 -8.99429296547658e-20 28.1701127357438)
(-1.89461708841628 1.47088533446987e-18 27.1063084725816)
(-1.84002691556149 1.48924578334944e-19 26.1679160556028)
(-1.77067285627682 -2.39428811708748e-18 25.3458947397743)
(-1.68946615284155 8.10316321774509e-20 24.6304843085505)
(-1.59892400192652 5.81005365933329e-19 24.0115497130301)
(-1.50130999761534 -3.89108599401641e-19 23.4790923626758)
(-1.39866707817045 -2.51213305030503e-18 23.0235600739719)
(-1.29283658582135 1.14112004802215e-19 22.6360180387282)
(-1.18546959778793 -1.4609397307055e-19 22.3082305410588)
(-1.07803237861639 -3.76527111063938e-20 22.0326871971223)
(-0.971808346322171 -7.11970342835619e-19 21.8025954610364)
(-0.867898709129247 -2.31514270100622e-20 21.6118533741729)
(-0.767223519377269 -2.30343863810211e-19 21.4550115416088)
(-0.670524452255743 -1.66304328712563e-18 21.3272300178301)
(-0.578370163692681 2.11155425341487e-18 21.2242335423263)
(-0.491164621151884 -3.18179106458889e-19 21.1422670396465)
(-0.409158362196874 -7.10989540952774e-20 21.0780522963027)
(-0.33246226543921 -7.55435131975763e-19 21.0287461271453)
(-0.261063178751628 -1.50467931211453e-21 20.9919000456132)
(-0.194840620836687 -2.97240326468134e-20 20.9654213081246)
(-0.133581810513921 -5.46052844370088e-19 20.9475346145237)
(-0.0769850080361881 1.09956691518739e-18 20.936744969915)
(-0.0250869960921838 2.10168923621842e-20 20.9318880789659)
(-0.235652125122548 -7.93607462599231e-22 43.1320412716401)
(-0.463436760028299 -1.92977533732437e-21 43.0138209810872)
(-0.750291077796854 -2.81445077217139e-20 42.6929838000579)
(-1.02738886181079 -3.01678320332047e-19 42.2102177609345)
(-1.29622424804194 -1.10995789600921e-17 41.575527802937)
(-1.55129788398862 -5.11618671131906e-18 40.8040947299886)
(-1.78979607490672 -9.3145919347999e-18 39.9118381145391)
(-2.00918439945852 -1.26317176761369e-18 38.9160656635665)
(-2.20737318334223 -3.93744102261286e-18 37.834884204919)
(-2.38259723809142 -2.67926050744656e-18 36.6867126993677)
(-2.53335298189395 -2.61264698233501e-18 35.4898086042314)
(-2.65832518034625 2.09980330971103e-19 34.2618517677681)
(-2.75631946617455 1.59498277004913e-18 33.0195992332684)
(-2.82610702392963 2.25343814435319e-19 31.7787194310399)
(-2.8663661155151 1.66677964801846e-18 30.5538651288934)
(-2.87635956101611 7.71361421731171e-19 29.3601427052702)
(-2.85679427955363 4.12915536320764e-20 28.2207367311963)
(-2.80695121742773 1.33302762137809e-18 27.177893403976)
(-2.72963801670393 -6.73710500852973e-20 26.2639212318917)
(-2.63087804093479 -2.25784046726703e-18 25.4665756830783)
(-2.51459631968622 1.02454714235408e-19 24.774322135826)
(-2.38448078153365 3.17761258700063e-19 24.175837293194)
(-2.24379647398079 -1.13068227708196e-18 23.6604821868245)
(-2.09546387026863 -2.00271609656275e-18 23.218482871835)
(-1.94209698091059 -4.21049522189119e-19 22.8409892468858)
(-1.78602724426452 -1.64221506123936e-19 22.5200635916823)
(-1.62931872775293 4.38025993238803e-19 22.2486301911215)
(-1.47377834262145 -3.1298689898527e-19 22.0204054702501)
(-1.32096341568235 -5.92842296571606e-19 21.8298206068154)
(-1.17218814095354 -6.16317357528615e-20 21.6719439870228)
(-1.0285300291315 -1.18380385033835e-18 21.5424079376407)
(-0.890837295491072 2.15443696519813e-18 21.4373422058519)
(-0.75973801924915 -2.8831513229136e-19 21.3533152942257)
(-0.635651767271611 1.01385534395942e-19 21.2872838052891)
(-0.518804171449095 -7.18729621161161e-19 21.2365493206155)
(-0.4092448661059 -5.63782518807164e-21 21.1987219835372)
(-0.306869465104744 -5.17850234760704e-20 21.1716896420831)
(-0.211437597012842 -4.26335176851695e-19 21.1535904197081)
(-0.122520555529347 1.08615337179935e-18 21.1427928914845)
(-0.040410983946414 3.91402652192089e-20 21.1379171107421)
(-0.300731889364185 -8.17309399494785e-22 43.5302406041233)
(-0.604556807954728 -3.25244866755626e-21 43.4113124657416)
(-0.981589731615166 -5.20605668914786e-20 43.0832209814791)
(-1.34451911819693 -4.17996626916566e-19 42.5897822965421)
(-1.69748138219016 -1.07880322913122e-17 41.9401270914713)
(-2.03270947670983 -5.71190564457398e-18 41.1505383762698)
(-2.34676312100912 -8.40750819893468e-18 40.2375662173404)
(-2.6362791032782 -1.56700425026061e-18 39.2192746260974)
(-2.89848177365087 -3.90561476379647e-18 38.1144771594982)
(-3.13099748512821 -2.63637434430241e-18 36.9422273489706)
(-3.33179414408972 -1.83200781337386e-18 35.721298371695)
(-3.49909592674184 -2.55007408321994e-19 34.4697288457402)
(-3.6312923811336 1.73567892437832e-18 33.2044608942775)
(-3.72674677981377 3.8454418331276e-19 31.9412356497355)
(-3.78392881140368 1.7529624068733e-18 30.6946147438953)
(-3.80191615765163 2.23376965895257e-19 29.4800901556319)
(-3.78123696855399 2.07983281394485e-19 28.3199298499894)
(-3.72060376283804 1.81954602241162e-18 27.2528474494334)
(-3.62405929827576 -1.34967240391291e-18 26.3148532368438)
(-3.49965161394117 -2.90890877972245e-18 25.492805856447)
(-3.35230239517614 2.09706772810743e-19 24.7748913266615)
(-3.18670326044 6.81940231896214e-19 24.1497444783678)
(-3.00696095015708 -8.18746589433774e-19 23.6068876238474)
(-2.81672065256451 -1.81050288920425e-18 23.1368355567196)
(-2.61921736463048 -4.71310466423459e-19 22.7311008208178)
(-2.41731321558111 -1.27175366507689e-19 22.382143349284)
(-2.21352641351673 4.81966729640505e-19 22.0832924469775)
(-2.01005657147762 -2.72548755367031e-19 21.8286571292419)
(-1.8088087105357 -5.79620472716823e-19 21.6130340252637)
(-1.61141662810784 1.89994341843413e-19 21.4318182679146)
(-1.41926549774162 -8.07621734149749e-19 21.2809206748039)
(-1.23351327993054 1.53136053089301e-18 21.1566932476715)
(-1.05511052556711 -2.92155795040785e-19 21.0558641175541)
(-0.884818230149252 -2.40613290182628e-19 20.9754823106495)
(-0.723223398930947 -8.83621292299264e-19 20.912872015295)
(-0.570752443794543 -1.14155170802391e-20 20.8655953997455)
(-0.42768511094714 -6.60086629997984e-20 20.8314217557166)
(-0.294158119243602 -2.88861441393657e-19 20.8082905346954)
(-0.170014244563527 1.06280358375591e-18 20.7942473052397)
(-0.0565273829696643 5.41778627309496e-20 20.7878044703323)
(-0.368348223923938 5.8157180088848e-17 44.2407392028571)
(-0.753056162251413 5.66103874886482e-17 44.1186382841573)
(-1.22455633193032 -7.56732802135189e-20 43.7808045612052)
(-1.67751051688799 -7.50486606757073e-19 43.2721379296369)
(-2.11869147862526 -1.06288279154356e-17 42.6013582075815)
(-2.53769905236628 -6.1572675220216e-18 41.785748936713)
(-2.93058124214131 -8.03719972032528e-18 40.8423036404885)
(-3.29311273281168 -2.74490523757255e-18 39.7896819096647)
(-3.62186128710029 -3.88832503931448e-18 38.6472224348513)
(-3.91388056614562 -2.66747918900457e-18 37.4344386145897)
(-4.16666186857425 -1.63500684240634e-18 36.1704597395406)
(-4.37803402410947 -1.17360709886408e-18 34.8735524297651)
(-4.54604912692685 -6.45380028671875e-18 33.5607590812411)
(-4.66880278513966 -5.93622494869964e-17 32.2478310320249)
(-4.74467248829886 -4.00554149559391e-17 30.9494301697522)
(-4.77270149896857 6.01404837461022e-17 29.6815497893861)
(-4.75310578044316 5.01634091239861e-17 28.4657410199403)
(-4.68417999163791 2.35850347140839e-18 27.3387149973093)
(-4.57137709848617 -1.83601828592134e-18 26.3417401406929)
(-4.42439952514994 -2.77681228202518e-18 25.4614559763246)
(-4.24917917743911 -3.99353197951271e-19 24.6860476299521)
(-4.05134985650255 -1.5582834967707e-19 24.0042391803245)
(-3.83578786321461 -1.63898686196531e-18 23.4057120460855)
(-3.60678451769684 -2.2702939618214e-18 22.8811703252185)
(-3.36810833679475 -3.8496478427629e-19 22.4223238766751)
(-3.12305134053268 -3.67253513597962e-20 22.0218245043098)
(-2.87446843466635 4.65840075471098e-19 21.6731833925621)
(-2.62481586179856 -2.54624929691104e-19 21.3706833069537)
(-2.37619167894808 -2.87550809703617e-19 21.1092922338961)
(-2.13037852250743 7.25264213392925e-19 20.8845815836509)
(-1.88888743607178 -9.67187654937317e-19 20.6926504668858)
(-1.65300106713412 9.09219914771724e-19 20.5300568923704)
(-1.42381483602537 -2.32318902953992e-19 20.393756456414)
(-1.20227547450268 -5.32368120236127e-20 20.2810489092197)
(-0.989217161346729 -8.06616585610331e-19 20.1895324547729)
(-0.785396528313754 -1.73607496102997e-20 20.1170633800051)
(-0.591530800821627 -7.86211447166463e-20 20.0617111831245)
(-0.408306986631666 -1.84480625081665e-19 20.0217574945173)
(-0.236283692519539 8.93018232928489e-19 19.9960036308849)
(-0.0795862598830798 3.65467036910347e-20 19.9830198142576)
(-0.44043664745134 5.02016740885685e-17 45.1320915003433)
(-0.9117333522698 4.59218872537531e-17 45.0052394856637)
(-1.48298702352154 4.25219622367198e-20 44.6540868895041)
(-2.0315294054572 -1.92800286343383e-18 44.1254996047893)
(-2.56634905625504 -1.01790758033698e-17 43.4276585612017)
(-3.07416611744417 -6.95207763372965e-18 42.5789539198234)
(-3.55057042762149 -8.3730385322856e-18 41.5968909377884)
(-3.99038368604303 -3.31771233620057e-18 40.5008430690781)
(-4.38950538557892 -4.47482130609254e-18 39.3107887364137)
(-4.74441371196211 -3.15176883683788e-18 38.0468307237428)
(-5.05214784511352 -1.60948884523873e-18 36.7285896375311)
(-5.31019098388239 -1.98009985399799e-18 35.3746996303863)
(-5.51634039755808 -7.35940482141958e-18 34.0024496155051)
(-5.66857285317465 -2.10097978750694e-17 32.6277655028205)
(-5.76533405372698 -2.25468489523206e-18 31.265637071453)
(-5.80568105266082 1.84002127541585e-17 29.9325580448519)
(-5.78931621530621 8.31903656511229e-18 28.6491172730633)
(-5.71433436180242 1.69150907177492e-18 27.4505077925903)
(-5.58789301189761 -2.86052039020278e-18 26.3835815746066)
(-5.42126377569359 -2.37492904121916e-18 25.4346597163316)
(-5.22144677166754 -5.59813456189159e-19 24.5917437285944)
(-4.99501547159579 -4.59167255392742e-19 23.8434830877041)
(-4.74760898100045 -1.34072781905313e-18 23.1795506218704)
(-4.48416343783356 -2.3707510765276e-18 22.5906711935319)
(-4.20897402958457 -1.27331129058005e-18 22.0685779741158)
(-3.92574902435028 -6.98846205174938e-19 21.6059305759555)
(-3.63764733499738 3.15842813729055e-19 21.1962247939561)
(-3.34731511247495 -2.26962553506949e-19 20.8337063796308)
(-3.056925095135 -1.63615669184196e-19 20.5132930620332)
(-2.76821953515109 2.46476466985893e-19 20.2305048858334)
(-2.48255498790071 -2.61666382794369e-19 19.981401386683)
(-2.20094591189545 8.55524563889582e-19 19.7625239842415)
(-1.92410354384073 2.56168718596933e-19 19.5708424674062)
(-1.65246710712329 -1.64498755895391e-19 19.4037056367288)
(-1.38622685405546 -7.74317650077491e-19 19.2587986752541)
(-1.12533727190345 -4.81656676078938e-19 19.1341090609436)
(-0.869483714822818 -7.90412322119721e-20 19.0278766066715)
(-0.61786544471614 -7.46009021881303e-20 18.9383911056821)
(-0.369127159418965 1.0751484748955e-18 18.863431064274)
(-0.130433914407431 8.06660170467547e-20 18.8039791971687)
(-0.516257944920644 4.74900982239544e-17 46.1535331234717)
(-1.07900917033365 4.13515496382261e-17 46.0214228704992)
(-1.75519692082772 -1.94544512399776e-20 45.655958365131)
(-2.4044891213608 -2.81342032924323e-18 45.1055319491859)
(-3.0380559715883 -9.96195783394631e-18 44.3781380308243)
(-3.63953380798052 -7.13876219868046e-18 43.4932134169233)
(-4.2041034560775 -8.21920507710208e-18 42.4687986791795)
(-4.7255377746664 -3.61301514576199e-18 41.3250587935891)
(-5.19905808936491 -5.39791495498567e-18 40.082688135897)
(-5.62056184482005 -4.10066016713798e-18 38.7624757978949)
(-5.98666560970776 -2.38024760604705e-18 37.3846379473924)
(-6.29457089362825 -2.67610395443965e-18 35.9682868750966)
(-6.54193228723321 -7.41362203082828e-18 34.5310737293417)
(-6.7267847769628 -7.17755791443912e-18 33.0892246644329)
(-6.84781446010939 6.84044432640314e-18 31.6581561641855)
(-6.90410421406146 4.36739994059841e-18 30.2546515771317)
(-6.89473520049415 -2.58473888472867e-18 28.8980935402725)
(-6.81804380475581 1.14191945181635e-18 27.6226888952526)
(-6.68308750404157 -1.55909482159873e-18 26.4805770062519)
(-6.50265376968196 1.08767615201628e-18 25.4576853282749)
(-6.28480683412017 7.11200012343165e-20 24.5417175062301)
(-6.03704368680915 8.83063787430599e-20 23.7211820855255)
(-5.76576410078771 -6.50687569074625e-19 22.985705614933)
(-5.47657572556436 -4.69793912138593e-20 22.326009377286)
(-5.17436788179439 -1.79467825632442e-18 21.7338232798778)
(-4.86337789819288 1.89638047390049e-19 21.2017672607243)
(-4.54722946249293 1.59779459390109e-19 20.7232363617196)
(-4.22896531391355 -1.84520426821303e-19 20.2923019512869)
(-3.91108347590086 -1.85787915381492e-19 19.9036321460082)
(-3.59558138718715 -2.55280069988731e-19 19.552428761602)
(-3.28400894760469 -1.08638746300998e-18 19.2343759338936)
(-2.97752922283173 9.41785162815963e-19 18.9455953884934)
(-2.67698261427678 9.06470498775144e-19 18.6826038984332)
(-2.38294263376273 -2.47083473401517e-19 18.4422700781765)
(-2.09575841376977 -6.00831237723635e-19 18.2217758402797)
(-1.81572938694444 -4.87261981007133e-19 18.0186085470349)
(-1.54394193942421 -1.83147480483089e-20 17.8306235705431)
(-1.28226353525746 1.20769897051187e-19 17.6562934082558)
(-1.00662522456567 1.30838008415921e-18 17.496050137066)
(-0.444998689533611 1.73427600901434e-18 17.303486035709)
(-0.594260176911165 4.66448445792519e-17 47.3235660325133)
(-1.25211448860062 3.91810371324912e-17 47.1865276284826)
(-2.03737631377981 -2.22626183857962e-19 46.8072798195183)
(-2.79158000945235 -3.41548196213949e-18 46.2353019580943)
(-3.52815150399128 -9.98541580541213e-18 45.4783935945605)
(-4.22744691977444 -7.270041525558e-18 44.5569395305644)
(-4.8843179330599 -7.9418385521258e-18 43.489409480796)
(-5.49140437084797 -4.23127160858488e-18 42.2967162407693)
(-6.0432590870345 -6.72260163511526e-18 41.0002267891054)
(-6.53520344147963 -4.71082698255682e-18 39.6214083391416)
(-6.96347308083456 -2.9237949398738e-18 38.1810872725884)
(-7.32506547571915 -3.69739367857924e-18 36.6988946812712)
(-7.61761750752796 -7.36913827389771e-18 35.1929041370971)
(-7.83938980780617 -2.79610619257764e-18 33.6797120218773)
(-7.98950029984168 7.29300962555451e-18 32.1751681844244)
(-8.06717785692202 -1.20217116479678e-18 30.6961440519131)
(-8.07093214948213 -5.75240715915047e-18 29.2609085527522)
(-7.99972246825763 1.38301371725846e-18 27.9035420639413)
(-7.86448819692867 1.50486867941265e-18 26.6810019385496)
(-7.67954106171612 1.91026327164479e-18 25.5788460976816)
(-7.4538961522312 1.07755268029868e-18 24.5845011907505)
(-7.19588923885318 6.07973667934884e-19 23.6863644008626)
(-6.91259659384043 -1.29909351803531e-18 22.8740888736915)
(-6.6102458598367 -5.23676512062607e-19 22.1385054042727)
(-6.2943270850063 -9.16129562593863e-19 21.4714913409162)
(-5.9696878078081 -3.7803266209374e-19 20.8658047686255)
(-5.64058627326353 1.45120624748402e-18 20.3149319620801)
(-5.3107246611283 8.84011332182231e-19 19.8129630630465)
(-4.98327773629271 6.574124953298e-20 19.3545014862203)
(-4.66092674890357 -1.23976591035928e-18 18.9346041608799)
(-4.34590317859853 -1.17283464815992e-18 18.5487457511237)
(-4.04004510412421 -5.50941072657022e-20 18.1927987118892)
(-3.74486815430165 3.27763205157383e-19 17.8630203115209)
(-3.46162780839852 9.82678097292186e-19 17.5560363379532)
(-3.19125152457296 -6.22563316991143e-19 17.2688249134529)
(-2.93415874660715 -3.14651263117151e-19 16.9987700300675)
(-2.69245373513358 1.58119295020955e-18 16.7438134410872)
(-2.48184513030325 -2.64095354016783e-19 16.5018376570776)
(-2.28617395722782 4.9426173983882e-19 16.2771847827915)
(-1.15866582606985 -1.27698382498041e-17 16.028585289881)
(-0.674672638907987 4.69106559389662e-17 48.6699682457939)
(-1.43111337717026 3.83986044845704e-17 48.527824264444)
(-2.32942878669742 -3.58552692491347e-19 48.1346586345484)
(-3.19251315710381 -3.65077137559747e-18 47.5409310318538)
(-4.03614795841287 -1.02760346411194e-17 46.7540884135453)
(-4.83721011709097 -7.52375062497241e-18 45.7953898747228)
(-5.59031020058369 -7.53861736621269e-18 44.6836110420013)
(-6.28687272574222 -4.31641053589486e-18 43.4403572551815)
(-6.92080021467345 -7.23860099698788e-18 42.0876118251557)
(-7.4868421283354 -4.87262140438928e-18 40.6475075294545)
(-7.98089490346574 -3.11339233771347e-18 39.1414980615483)
(-8.39982670882107 -4.11995264880331e-18 37.5897862698976)
(-8.74137188171498 -5.78733659423452e-18 36.0109490102029)
(-9.00415682760863 -1.01269530141022e-18 34.4220442153355)
(-9.18793731102665 6.23295042183784e-18 32.8393842813675)
(-9.29232291515445 -3.06142805371471e-18 31.2799044515175)
(-9.31536400524561 -7.07767376030882e-18 29.7611347380266)
(-9.25685296062661 5.29297198431642e-19 28.3178575709043)
(-9.12956796448905 2.26465973446863e-18 27.0113764315333)
(-8.9494048011758 2.13855072751539e-18 25.8268332578176)
(-8.72617646773434 1.39701311618553e-18 24.7513914315585)
(-8.46890619243198 1.07664485140409e-18 23.7733174742995)
(-8.18513623249102 -2.10377021359307e-18 22.8823235224877)
(-7.88147828124997 3.44605289959229e-19 22.0694500610049)
(-7.56377800850441 -3.37863478225186e-19 21.326907452558)
(-7.23726354872931 3.40905450561764e-19 20.6478687261703)
(-6.906622616392 2.76674537131724e-18 20.0262742174578)
(-6.57603647134617 1.06559833476538e-18 19.4566671853293)
(-6.24919225905093 6.46928744323938e-19 18.9340716395508)
(-5.92927908934857 -1.24312808504728e-18 18.4539124253134)
(-5.61898140219685 -5.50780090264685e-19 18.01197209514)
(-5.32047633725394 6.47728765694148e-19 17.6043762673072)
(-5.03545720466603 -1.08524506167771e-18 17.2275960922213)
(-4.76520650410047 1.20470877508858e-18 16.8784432644304)
(-4.51044591685162 1.36605809760034e-18 16.5540475793016)
(-4.2698741707315 1.53699207628304e-18 16.2520636757922)
(-4.04045980805552 1.88316025347242e-18 15.9713597655504)
(-3.8554846840807 1.74051449285709e-19 15.7063589800224)
(-3.82819045951446 4.92733560818291e-18 15.4328540080758)
(-2.06891795532218 -5.51518260565912e-19 15.3122906369997)
(-0.757545598712786 4.78373117850157e-17 50.2100745073533)
(-1.61580025105359 3.84040289695177e-17 50.0619039435623)
(-2.63093650986715 -3.75308002040407e-19 49.653945248624)
(-3.6065396633737 -4.00083846941189e-18 49.0376486282029)
(-4.56096176875157 -1.06182776038458e-17 48.2199489107879)
(-5.46738537469766 -7.68996226770456e-18 47.2229167841545)
(-6.32029053296101 -7.86039400794321e-18 46.0655033784426)
(-7.10980487340949 -4.6480890277923e-18 44.7699527663813)
(-7.82920575582766 -6.88646772183508e-18 43.3588071399011)
(-8.47266837647743 -4.93902072180621e-18 41.8548600331514)
(-9.0357818574931 -3.4475879476301e-18 40.2802232615636)
(-9.51534190638265 -3.32844356134519e-18 38.6557470207046)
(-9.90926977017883 -4.78531479594951e-18 37.0006212894683)
(-10.2166562936411 3.54883987691376e-19 35.3324843784355)
(-10.4380665164265 6.3277860468032e-18 33.6681833285348)
(-10.5737692297587 -4.750731621591e-18 32.024840148277)
(-10.6214933038432 -7.01599535590841e-18 30.4198506561349)
(-10.5820203028042 3.84800947335185e-19 28.8894946976577)
(-10.4699248092105 2.55009182977924e-18 27.4987812938426)
(-10.3027700737677 2.72682683302439e-18 26.2323538752144)
(-10.0910529364845 2.05659014519847e-18 25.0770336364363)
(-9.84434154815352 -4.11638726177284e-19 24.0207969647777)
(-9.57038354187939 -1.96817960773599e-18 23.0532732286327)
(-9.2758247284034 -1.0485026864109e-18 22.165606734213)
(-8.96643193325835 -4.45199325133581e-19 21.3503049941928)
(-8.64731580029504 1.16470542619372e-18 20.6010081734701)
(-8.32306072265068 3.87034297707074e-18 19.9122564024833)
(-7.99779649647597 -5.36515843436961e-19 19.2792754373333)
(-7.67522670096347 6.4141482640642e-19 18.697796412329)
(-7.35862450311755 -1.5787659094617e-18 18.1639157434717)
(-7.05081286076781 -1.93276042585238e-18 17.6739950642328)
(-6.75413153803313 -9.3709998504614e-19 17.2245991803665)
(-6.4704238285708 -9.08265133738409e-19 16.8124681679981)
(-6.20120097704857 1.24454197862627e-18 16.4344783195834)
(-5.94788325977393 1.86797817384294e-18 16.0874894332541)
(-5.70917859498542 1.86178026969405e-18 15.7686590011757)
(-5.4726031957194 1.88852132139065e-18 15.4786006298783)
(-5.27378550581096 -3.27514537950706e-18 15.2116393291077)
(-5.50461498283797 -6.17176277968457e-18 14.8451600018234)
(-3.06914932789393 1.16335624303004e-18 14.963250443104)
(-0.842785798713755 4.89701404267436e-17 51.9562772473452)
(-1.80579806078874 3.87425421751418e-17 51.8001797300864)
(-2.94123561652979 -5.11876107892467e-19 51.3756352278738)
(-4.03258145201739 -4.34319920056392e-18 50.7351526574495)
(-5.10108093092935 -9.9342181237145e-18 49.884996568989)
(-6.11597999315516 -7.32901328795806e-18 48.8480037909571)
(-7.07177009177193 -8.26707777755471e-18 47.6431733415708)
(-7.95719875358053 -5.04923465069208e-18 46.2933439811965)
(-8.76495118792716 -1.10615816176547e-17 44.8215624018104)
(-9.48861647488453 -9.56190915457584e-17 43.2512863739844)
(-10.1234936537145 -1.28941683619988e-15 41.6053262395864)
(-10.6663361424482 -1.18763527822954e-15 39.905269463175)
(-11.1153072986371 -4.3270469674797e-18 38.1710466444797)
(-11.4700112071741 1.23464992939229e-18 36.4210145440514)
(-11.7319296635123 5.98680903161723e-18 34.6726623744064)
(-11.9022666405133 -4.40342455568781e-18 32.9435111585246)
(-11.9785608608252 -6.29010938234302e-18 31.2515794672252)
(-11.962725166296 1.35604171777049e-18 29.6354589987972)
(-11.8711093505981 2.58378323993296e-18 28.1630342377234)
(-11.7230825312516 2.39789825611307e-18 26.8184039295504)
(-11.5298368260216 1.5801057926625e-18 25.5878952161239)
(-11.3014861688698 -1.76024139084036e-18 24.4589115568386)
(-11.0458675941852 -1.06090576557221e-18 23.4206697386467)
(-10.7694530474567 3.40175243789764e-19 22.4640420378215)
(-10.4776141194536 1.13494846562002e-18 21.5814480807968)
(-10.1749280224022 4.06933363076383e-18 20.7666299796804)
(-9.86538097238236 3.51184086215164e-18 20.0144130588398)
(-9.55251371924429 -9.74398772711736e-19 19.3204660880328)
(-9.23951682972678 9.73280598393256e-19 18.6810799353511)
(-8.92928645107436 -3.23645488803742e-18 18.0929741994236)
(-8.62445139299796 -2.13339128844211e-18 17.5531361235403)
(-8.32736088812871 1.12554411141312e-19 17.058697599792)
(-8.04002153842278 -6.1398636389433e-19 16.6068668336659)
(-7.76426645656525 1.48345376878778e-18 16.1948629341552)
(-7.50281140318146 1.94307983965735e-18 15.8194806932678)
(-7.25723304816279 1.37369943122653e-19 15.4768998031871)
(-7.00491725638648 1.51400689478103e-18 15.1702361677657)
(-6.7543622918921 -2.84778171704898e-19 14.912047481476)
(-7.22450986030251 -8.89212521619489e-18 14.4240368217271)
(-4.222132265453 -3.95277436228244e-17 14.8251288776789)
(-0.930019885497096 5.03569260739814e-17 53.9218576551648)
(-2.00029876874371 3.92395117071096e-17 53.754697004182)
(-3.25908273908754 -4.17983657726872e-19 53.3106472009888)
(-4.46882487193066 -4.80934205747928e-18 52.6433305560512)
(-5.65409466828166 -9.56508093028531e-18 51.7582259937754)
(-6.7799126637143 -6.79154034899784e-18 50.6789045160763)
(-7.84096985975778 -7.70759286233671e-18 49.4242981138626)
(-8.8245492779999 -5.7074570935603e-18 48.0178029121936)
(-9.72279243516466 -1.44734426350977e-17 46.4829134061146)
(-10.5286840095942 -1.0702386684762e-16 44.8437518511312)
(-11.2372378192466 -3.9414172228111e-16 43.1238614113904)
(-11.8451665962721 -3.04582870689329e-16 41.3456512523304)
(-12.3508936528957 -3.86620836491582e-18 39.5299146422419)
(-12.7545341289545 1.68841369102601e-18 37.6958675517053)
(-13.0585064698841 5.91917302634322e-18 35.8617566573941)
(-13.2651994677715 -3.65767108137402e-18 34.0457302838578)